65
Lattice="10.862 0.0 0.0 0.0 10.862 0.0 0.0 0.0 10.862" Properties=species:S:1:pos:R:3:initial_magmoms:R:1:momenta:R:3:forces:R:3 energy=-345.9993293248117 stress="-0.01460407891200452 0.000972374645033036 0.0009729943389001221 0.000972374645033036 -0.014603946853397914 0.0009737790421307762 0.0009729943389001221 0.0009737790421307762 -0.014603942994319176" free_energy=-345.9993293248117 pbc="T T T"
Li       6.13816610       6.13817058       6.13816553       0.00000000       0.00000000       0.00000000       0.00000000      -0.00030766      -0.00023788      -0.00023418
Si       1.39497509       4.10044638       1.39497372       0.00000000       0.00000000       0.00000000       0.00000000      -0.00060337       0.00246904      -0.00071738
Si       1.38252245       4.09976777       6.82048392       0.00000000       0.00000000       0.00000000       0.00000000       0.00046159      -0.00103856       0.00055870
Si       1.37452340       9.53501570       1.37451488       0.00000000       0.00000000       0.00000000       0.00000000       0.00832418      -0.00333171       0.00841797
Si       1.37601736       9.54106027       6.81259875       0.00000000       0.00000000       0.00000000       0.00000000       0.00316435      -0.00289658       0.00252659
Si       6.82047743       4.09976841       1.38251795       0.00000000       0.00000000       0.00000000       0.00000000       0.00057623      -0.00130668       0.00056076
Si       6.85616097       4.01791827       6.85614816       0.00000000       0.00000000       0.00000000       0.00000000      -0.00190898      -0.00304278      -0.00173858
Si       6.81260941       9.54108401       1.37601133       0.00000000       0.00000000       0.00000000       0.00000000       0.00240372      -0.00301825       0.00327090
Si       6.81358873       9.54813840       6.81358904       0.00000000       0.00000000       0.00000000       0.00000000       0.00083125      -0.00137317       0.00102003
Si       0.03991268       0.03991662       2.74145921       0.00000000       0.00000000       0.00000000       0.00000000      -0.00812240      -0.00822303       0.00319272
Si       0.01949296       0.01949592       8.17593960       0.00000000       0.00000000       0.00000000       0.00000000       0.00079489       0.00069187      -0.00201513
Si       0.03845387       5.46382416       2.73538905       0.00000000       0.00000000       0.00000000       0.00000000      -0.00281784      -0.00234646       0.00271688
Si       0.03196318       5.45597685       8.17669323       0.00000000       0.00000000       0.00000000       0.00000000      -0.00057946      -0.00045040       0.00079866
Si       5.46382557       0.03845515       2.73539929       0.00000000       0.00000000       0.00000000       0.00000000      -0.00224816      -0.00284042       0.00271633
Si       5.45597455       0.03196126       8.17668903       0.00000000       0.00000000       0.00000000       0.00000000      -0.00060173      -0.00057509       0.00093394
Si       5.46291965       5.46290703       2.72831970       0.00000000       0.00000000       0.00000000       0.00000000      -0.00078069      -0.00067483       0.00133043
Si       5.42035302       5.42036432       8.25852214       0.00000000       0.00000000       0.00000000       0.00000000       0.00112809       0.00097917       0.00372975
Si       1.39498217       1.39498178       4.10046969       0.00000000       0.00000000       0.00000000       0.00000000      -0.00074292      -0.00072372       0.00224245
Si       1.37452475       1.37452303       9.53501446       0.00000000       0.00000000       0.00000000       0.00000000       0.00836790       0.00834644      -0.00344419
Si       1.38252090       6.82048358       4.09976748       0.00000000       0.00000000       0.00000000       0.00000000       0.00045880       0.00056291      -0.00125872
Si       1.37601909       6.81260314       9.54106374       0.00000000       0.00000000       0.00000000       0.00000000       0.00311903       0.00253690      -0.00278660
Si       6.82050215       1.38251626       4.09976876       0.00000000       0.00000000       0.00000000       0.00000000       0.00034861       0.00053536      -0.00120194
Si       6.81260194       1.37601636       9.54106784       0.00000000       0.00000000       0.00000000       0.00000000       0.00248585       0.00317419      -0.00280353
Si       6.85615587       6.85615877       4.01791715       0.00000000       0.00000000       0.00000000       0.00000000      -0.00181547      -0.00177020      -0.00293285
Si       6.81359338       6.81358863       9.54812807       0.00000000       0.00000000       0.00000000       0.00000000       0.00058305       0.00090904      -0.00107720
Si       0.03991207       2.74145744       0.03990879       0.00000000       0.00000000       0.00000000       0.00000000      -0.00818487       0.00316855      -0.00825218
Si       0.03845938       2.73539755       5.46383839       0.00000000       0.00000000       0.00000000       0.00000000      -0.00299122       0.00264032      -0.00239416
Si       0.01949904       8.17595211       0.01948612       0.00000000       0.00000000       0.00000000       0.00000000       0.00072405      -0.00217055       0.00082800
Si       0.03194985       8.17666031       5.45598113       0.00000000       0.00000000       0.00000000       0.00000000      -0.00047139       0.00126054      -0.00056120
Si       5.46381207       2.73538897       0.03845952       0.00000000       0.00000000       0.00000000       0.00000000      -0.00216668       0.00275477      -0.00292058
Si       5.46290010       2.72830288       5.46290162       0.00000000       0.00000000       0.00000000       0.00000000      -0.00057277       0.00151619      -0.00071521
Si       5.45597742       8.17669735       0.03195909       0.00000000       0.00000000       0.00000000       0.00000000      -0.00043402       0.00081429      -0.00052222
Si       5.42035484       8.25852898       5.42035212       0.00000000       0.00000000       0.00000000       0.00000000       0.00108034       0.00369039       0.00117006
Si       4.11812289       4.11813530       4.11812120       0.00000000       0.00000000       0.00000000       0.00000000       0.00964534       0.00956603       0.00968625
Si       4.05778998       4.05778893       9.56454246       0.00000000       0.00000000       0.00000000       0.00000000      -0.00375931      -0.00366690       0.00347354
Si       4.05778562       9.56454311       4.05778862       0.00000000       0.00000000       0.00000000       0.00000000      -0.00368497       0.00353791      -0.00372454
Si       4.10847380       9.55159210       9.55160607       0.00000000       0.00000000       0.00000000       0.00000000      -0.00299530      -0.00156707      -0.00176983
Si       9.56454743       4.05778198       4.05778378       0.00000000       0.00000000       0.00000000       0.00000000       0.00347026      -0.00351221      -0.00348602
Si       9.55160676       4.10847798       9.55158181       0.00000000       0.00000000       0.00000000       0.00000000      -0.00182843      -0.00296261      -0.00134627
Si       9.55160006       9.55159196       4.10847928       0.00000000       0.00000000       0.00000000       0.00000000      -0.00167376      -0.00157971      -0.00296256
Si       9.51924112       9.51923645       9.51924086       0.00000000       0.00000000       0.00000000       0.00000000      -0.01149404      -0.01153413      -0.01163850
Si       2.74146296       0.03991138       0.03991122       0.00000000       0.00000000       0.00000000       0.00000000       0.00312017      -0.00814685      -0.00817118
Si       2.73540173       0.03845815       5.46382670       0.00000000       0.00000000       0.00000000       0.00000000       0.00258619      -0.00297476      -0.00234546
Si       2.73539723       5.46383989       0.03845174       0.00000000       0.00000000       0.00000000       0.00000000       0.00258394      -0.00260060      -0.00286639
Si       2.72830869       5.46291589       5.46290634       0.00000000       0.00000000       0.00000000       0.00000000       0.00143557      -0.00075202      -0.00064644
Si       8.17594475       0.01947972       0.01948505       0.00000000       0.00000000       0.00000000       0.00000000      -0.00197179       0.00100232       0.00080102
Si       8.17666769       0.03195375       5.45598114       0.00000000       0.00000000       0.00000000       0.00000000       0.00130158      -0.00058770      -0.00052145
Si       8.17665607       5.45597998       0.03195297       0.00000000       0.00000000       0.00000000       0.00000000       0.00141465      -0.00060006      -0.00059409
Si       8.25851813       5.42036976       5.42036663       0.00000000       0.00000000       0.00000000       0.00000000       0.00388350       0.00084277       0.00084963
Si       4.10046345       1.39497439       1.39497934       0.00000000       0.00000000       0.00000000       0.00000000       0.00217345      -0.00068713      -0.00060430
Si       4.09975514       1.38252520       6.82047483       0.00000000       0.00000000       0.00000000       0.00000000      -0.00098623       0.00040561       0.00069775
Si       4.09976777       6.82046653       1.38251567       0.00000000       0.00000000       0.00000000       0.00000000      -0.00104542       0.00081479       0.00061167
Si       4.01791300       6.85615520       6.85616329       0.00000000       0.00000000       0.00000000       0.00000000      -0.00287534      -0.00182051      -0.00194443
Si       9.53502338       1.37452220       1.37451589       0.00000000       0.00000000       0.00000000       0.00000000      -0.00354689       0.00829025       0.00834402
Si       9.54105850       1.37601422       6.81261077       0.00000000       0.00000000       0.00000000       0.00000000      -0.00283370       0.00313586       0.00237904
Si       9.54106899       6.81260280       1.37601195       0.00000000       0.00000000       0.00000000       0.00000000      -0.00297769       0.00253136       0.00311102
Si       9.54813172       6.81358841       6.81358572       0.00000000       0.00000000       0.00000000       0.00000000      -0.00115160       0.00073532       0.00104338
Si       2.75732420       2.75732748       2.75733116       0.00000000       0.00000000       0.00000000       0.00000000       0.01134356       0.01126557       0.01124383
Si       2.72486104       2.72486752       8.16801470       0.00000000       0.00000000       0.00000000       0.00000000       0.00152564       0.00148698       0.00299283
Si       2.72486161       8.16803665       2.72486060       0.00000000       0.00000000       0.00000000       0.00000000       0.00152913       0.00266694       0.00144704
Si       2.71196494       8.21863910       8.21865886       0.00000000       0.00000000       0.00000000       0.00000000      -0.00438702       0.00465693       0.00442354
Si       8.16803849       2.72486352       2.72486940       0.00000000       0.00000000       0.00000000       0.00000000       0.00273870       0.00149272       0.00130148
Si       8.21865687       2.71195536       8.21865898       0.00000000       0.00000000       0.00000000       0.00000000       0.00437096      -0.00422498       0.00437443
Si       8.21864474       8.21865767       2.71196257       0.00000000       0.00000000       0.00000000       0.00000000       0.00456411       0.00444711      -0.00441405
Si       8.15846453       8.15843854       8.15847579       0.00000000       0.00000000       0.00000000       0.00000000      -0.00997759      -0.00969085      -0.01018348
