66
Lattice="11.5352 0.0 0.0 0.0 19.0638 0.0 -5.7676 0.0 9.98977" Properties=species:S:1:pos:R:3:move_mask:L:1:initial_magmoms:R:1:momenta:R:3:forces:R:3 energy=-203.06139467656612 stress="0.0018422925096249695 3.510772742715476e-05 -0.0002843937417119417 3.510772742715476e-05 -0.0072257944451679995 -9.443300052811364e-06 -0.0002843937417119417 -9.443300052811364e-06 0.0014807803651247465" free_energy=-203.06139467656612 pbc="T T T"
H        2.12353708      10.41085185       6.59636397  T       0.00000000       0.00000000       0.00000000       0.00000000      -0.00803418      -0.01286953       0.00315290
H        1.61003061      10.41198268       5.65829570  T       0.00000000       0.00000000       0.00000000       0.00000000      -0.01882672      -0.01430975       0.00418447
Au       0.23070400       1.90638000       0.39959080  F       0.00000000       0.00000000       0.00000000       0.00000000       0.00055780      -0.46149746      -0.00039256
Au       3.11450400       1.90638000       0.39959080  F       0.00000000       0.00000000       0.00000000       0.00000000      -0.00198498      -0.46419005      -0.00199723
Au       5.99830400       1.90638000       0.39959080  F       0.00000000       0.00000000       0.00000000       0.00000000      -0.00045573      -0.45619302      -0.00066060
Au       8.88210400       1.90638000       0.39959080  F       0.00000000       0.00000000       0.00000000       0.00000000       0.00060331      -0.45767785      -0.00023909
Au      -1.21119600       1.90638000       2.89703330  F       0.00000000       0.00000000       0.00000000       0.00000000       0.00041010      -0.45759985      -0.00050653
Au       1.67260400       1.90638000       2.89703330  F       0.00000000       0.00000000       0.00000000       0.00000000       0.00014719      -0.45568369      -0.00147639
Au       4.55640400       1.90638000       2.89703330  F       0.00000000       0.00000000       0.00000000       0.00000000      -0.00101996      -0.45604077      -0.00072772
Au       7.44020400       1.90638000       2.89703330  F       0.00000000       0.00000000       0.00000000       0.00000000      -0.00042084      -0.45589343       0.00023508
Au      -2.65309600       1.90638000       5.39447580  F       0.00000000       0.00000000       0.00000000       0.00000000       0.00026486      -0.45622393       0.00069584
Au       0.23070400       1.90638000       5.39447580  F       0.00000000       0.00000000       0.00000000       0.00000000      -0.00029052      -0.45187343      -0.00005824
Au       3.11450400       1.90638000       5.39447580  F       0.00000000       0.00000000       0.00000000       0.00000000      -0.00003820      -0.44634507       0.00000147
Au       5.99830400       1.90638000       5.39447580  F       0.00000000       0.00000000       0.00000000       0.00000000       0.00001499      -0.45592607       0.00121336
Au      -4.09499600       1.90638000       7.89191830  F       0.00000000       0.00000000       0.00000000       0.00000000       0.00077224      -0.46437946       0.00265181
Au      -1.21119600       1.90638000       7.89191830  F       0.00000000       0.00000000       0.00000000       0.00000000      -0.00180547      -0.45608998       0.00098198
Au       1.67260400       1.90638000       7.89191830  F       0.00000000       0.00000000       0.00000000       0.00000000      -0.00019183      -0.45197421       0.00020619
Au       4.55640400       1.90638000       7.89191830  F       0.00000000       0.00000000       0.00000000       0.00000000       0.00128743      -0.45573768       0.00048699
Au       0.23069823       4.26098807       2.06455580  F       0.00000000       0.00000000       0.00000000       0.00000000       0.00514709       0.46154292       0.02423226
Au       3.11449823       4.26098807       2.06455580  F       0.00000000       0.00000000       0.00000000       0.00000000       0.00254372       0.47881743       0.03804227
Au       5.99829823       4.26098807       2.06455580  F       0.00000000       0.00000000       0.00000000       0.00000000      -0.00041967       0.45326005       0.00261695
Au       8.88209823       4.26098807       2.06455580  F       0.00000000       0.00000000       0.00000000       0.00000000      -0.00175582       0.44997448       0.00200139
Au      -1.21120177       4.26098807       4.56199830  F       0.00000000       0.00000000       0.00000000       0.00000000       0.01489081       0.47818456       0.01980610
Au       1.67259823       4.26098807       4.56199830  F       0.00000000       0.00000000       0.00000000       0.00000000       0.01637979       0.50478006       0.01571161
Au       4.55639823       4.26098807       4.56199830  F       0.00000000       0.00000000       0.00000000       0.00000000      -0.02908805       0.50030028       0.01779825
Au       7.44019823       4.26098807       4.56199830  F       0.00000000       0.00000000       0.00000000       0.00000000      -0.00195073       0.45380957      -0.00098240
Au      -2.65310177       4.26098807       7.05944080  F       0.00000000       0.00000000       0.00000000       0.00000000       0.03227803       0.48535298      -0.01434967
Au       0.23069823       4.26098807       7.05944080  F       0.00000000       0.00000000       0.00000000       0.00000000       0.00431990       0.50864707      -0.00251696
Au       3.11449823       4.26098807       7.05944080  F       0.00000000       0.00000000       0.00000000       0.00000000      -0.00455162       0.50515145      -0.02273792
Au       5.99829823       4.26098807       7.05944080  F       0.00000000       0.00000000       0.00000000       0.00000000      -0.03222736       0.47936319      -0.02184574
Au      -4.09500177       4.26098807       9.55688330  F       0.00000000       0.00000000       0.00000000       0.00000000       0.00516809       0.44877057      -0.00233281
Au      -1.21120177       4.26098807       9.55688330  F       0.00000000       0.00000000       0.00000000       0.00000000       0.02847709       0.48541173      -0.02021458
Au       1.67259823       4.26098807       9.55688330  F       0.00000000       0.00000000       0.00000000       0.00000000      -0.00989980       0.47636113      -0.02202304
Au       4.55639823       4.26098807       9.55688330  F       0.00000000       0.00000000       0.00000000       0.00000000      -0.01772466       0.46048019      -0.01548599
Au       1.67924467       6.69002405       1.23377783  T       0.00000000       0.00000000       0.00000000       0.00000000       0.00061778      -0.00407227       0.00506273
Au       4.55781113       6.69246399       1.23422931  T       0.00000000       0.00000000       0.00000000       0.00000000      -0.00331700      -0.00609420      -0.00008703
Au       7.44217639       6.69580700       1.22959404  T       0.00000000       0.00000000       0.00000000       0.00000000      -0.00144996      -0.00218926       0.00996716
Au      10.32943169       6.69056073       1.23028166  T       0.00000000       0.00000000       0.00000000       0.00000000      -0.00099248      -0.00477886       0.00021675
Au       0.23732676       6.71150733       3.73795058  T       0.00000000       0.00000000       0.00000000       0.00000000       0.00585716      -0.01630653      -0.01357159
Au       3.10945711       6.73350202       3.75142326  T       0.00000000       0.00000000       0.00000000       0.00000000      -0.00483832      -0.00669624      -0.01267721
Au       5.99056834       6.69729040       3.73468507  T       0.00000000       0.00000000       0.00000000       0.00000000       0.01282025      -0.00657387      -0.00665579
Au       8.88679365       6.69639031       3.73098066  T       0.00000000       0.00000000       0.00000000       0.00000000      -0.01104325      -0.00284468      -0.00439171
Au      -1.19444429       6.72501674       6.22086835  T       0.00000000       0.00000000       0.00000000       0.00000000      -0.00501781      -0.01812373       0.01232660
Au       1.67572228       6.74896808       6.22619756  T       0.00000000       0.00000000       0.00000000       0.00000000       0.00050152      -0.01841356       0.00033593
Au       4.53529772       6.73444145       6.22116137  T       0.00000000       0.00000000       0.00000000       0.00000000       0.00765086      -0.00627446       0.01085533
Au       7.43992531       6.69235825       6.22535584  T       0.00000000       0.00000000       0.00000000       0.00000000      -0.00178168      -0.00390217       0.00354629
Au      -2.64271456       6.69481763       8.71895484  T       0.00000000       0.00000000       0.00000000       0.00000000       0.00474491      -0.00556725      -0.00231254
Au       0.24540204       6.72484018       8.71480352  T       0.00000000       0.00000000       0.00000000       0.00000000      -0.01308066      -0.01695079      -0.00174042
Au       3.11117887       6.71067768       8.71627087  T       0.00000000       0.00000000       0.00000000       0.00000000       0.01351553      -0.01391785       0.00067396
Au       6.00075519       6.68948321       8.71870173  T       0.00000000       0.00000000       0.00000000       0.00000000      -0.00352385      -0.00317696      -0.00265182
Au       0.24502123       9.18767679       0.39263000  T       0.00000000       0.00000000       0.00000000       0.00000000       0.00307283       0.00339532      -0.00089297
Au       3.12533871       9.19060287       0.38536291  T       0.00000000       0.00000000       0.00000000       0.00000000      -0.00684393       0.00281879      -0.00019448
Au       5.98995632       9.19535075       0.42645461  T       0.00000000       0.00000000       0.00000000       0.00000000       0.01070439      -0.00426579      -0.01606000
Au       8.90087224       9.19697822       0.43295505  T       0.00000000       0.00000000       0.00000000       0.00000000      -0.00975799      -0.00334674      -0.01435112
Au      -1.22783781       9.19863870       2.86761528  T       0.00000000       0.00000000       0.00000000       0.00000000       0.00765466      -0.00433946       0.01816470
Au       1.67177617       9.19753023       2.85389788  T       0.00000000       0.00000000       0.00000000       0.00000000       0.00426073      -0.02083322      -0.00536344
Au       4.56102652       9.19863695       2.88238764  T       0.00000000       0.00000000       0.00000000       0.00000000      -0.00308829      -0.00182935       0.01696441
Au       7.43246496       9.19337431       2.90464811  T       0.00000000       0.00000000       0.00000000       0.00000000       0.00566555      -0.00256337      -0.00332296
Au      -2.67698091       9.19670288       5.39201262  T       0.00000000       0.00000000       0.00000000       0.00000000       0.01869670      -0.00531848      -0.00343413
Au       0.15481905       9.26702134       5.33303773  T       0.00000000       0.00000000       0.00000000       0.00000000      -0.00153038      -0.02000865      -0.00688200
Au       3.20028467       9.41272703       5.34421817  T       0.00000000       0.00000000       0.00000000       0.00000000      -0.00682016      -0.04655819       0.00327158
Au       6.01351996       9.19883069       5.40060200  T       0.00000000       0.00000000       0.00000000       0.00000000      -0.01280497      -0.00227721      -0.00543891
Au      -4.07644189       9.19069031       7.89139922  T       0.00000000       0.00000000       0.00000000       0.00000000      -0.00262481       0.00189792       0.00630633
Au      -1.20290697       9.21510220       7.88887261  T       0.00000000       0.00000000       0.00000000       0.00000000      -0.00117626      -0.01979332       0.00043061
Au       1.68741811       9.26880528       7.99399214  T       0.00000000       0.00000000       0.00000000       0.00000000       0.00502204      -0.02115726       0.00730355
Au       4.59364753       9.19553183       7.91635163  T       0.00000000       0.00000000       0.00000000       0.00000000       0.00633050      -0.01964134      -0.00086947
