67
Lattice="12.3227 0.0 0.0 0.0 20.0 0.0 -6.16154 0.0 10.6715" Properties=species:S:1:pos:R:3:momenta:R:3:forces:R:3 energy=-11866.824886 stress="-0.008982577897257007 -5.772941497162559e-06 2.759469082623628e-05 -5.772941497162559e-06 0.00012838539760821855 1.1776922191373922e-05 2.759469082623628e-05 1.1776922191373922e-05 0.006577077360695938" magmom=7.07463e-06 free_energy=-11866.824886 pbc="T T T"
C        0.18845671       9.89281182       0.32638815       0.00000000       0.00000000       0.00000000      -0.01536368       0.01128836       0.03900374
C        1.41445640       9.89299774       1.06511912       0.00000000       0.00000000       0.00000000       0.01479430       0.00827841      -0.03875043
C        2.65507508       9.87038481       0.37987651       0.00000000       0.00000000       0.00000000      -0.00117652       0.00652583       0.01590997
C        3.88208045       9.93366503       1.11458067       0.00000000       0.00000000       0.00000000      -0.00231867      -0.00585812      -0.02290250
C        5.10904494       9.87256675       0.37978214       0.00000000       0.00000000       0.00000000       0.00309922       0.00713198       0.01302016
C        6.34966365       9.89662184       1.06501970       0.00000000       0.00000000       0.00000000      -0.01466961       0.00461563      -0.03306453
C        7.57586550       9.89876196       0.32667677       0.00000000       0.00000000       0.00000000       0.01427248       0.00758335       0.03500137
C        8.81666944       9.87498949       1.01205170       0.00000000       0.00000000       0.00000000       0.00088722       0.00268894      -0.01246584
C       10.04365698       9.93630635       0.27736898       0.00000000       0.00000000       0.00000000      -0.00217051      -0.00744582       0.02735097
C       11.27062540       9.87131108       1.01203657       0.00000000       0.00000000       0.00000000      -0.00195661       0.00466422      -0.01597078
C       -1.05597534       9.78004218       2.43862596       0.00000000       0.00000000       0.00000000       0.01624138       0.01010423      -0.01004433
C        0.15967417       9.83494835       3.16672172       0.00000000       0.00000000       0.00000000       0.02223484       0.01029367       0.02171577
C        1.40504510       9.94545797       2.49052398       0.00000000       0.00000000       0.00000000      -0.03092429       0.00707977      -0.00690607
C        2.61590102      10.12366255       3.23930954       0.00000000       0.00000000       0.00000000       0.00978822      -0.00689547      -0.01674865
C        3.88203210      10.09498227       2.53855163       0.00000000       0.00000000       0.00000000      -0.00219169      -0.00907850       0.00872294
C        5.14805362      10.12046471       3.23946466       0.00000000       0.00000000       0.00000000      -0.00951487      -0.00904429      -0.01768012
C        6.35910431       9.94521819       2.49059705       0.00000000       0.00000000       0.00000000       0.03104204       0.00584952      -0.01253650
C        7.60495724       9.83548457       3.16647066       0.00000000       0.00000000       0.00000000      -0.02971552       0.00382302       0.02699167
C        8.82065473       9.78227476       2.43853770       0.00000000       0.00000000       0.00000000      -0.00799636       0.00549015      -0.01170688
C       10.04374481       9.70871017       3.15647581       0.00000000       0.00000000       0.00000000      -0.00697575       0.00566483       0.00429374
C       -2.27901898       9.62720083       4.58743989       0.00000000       0.00000000       0.00000000       0.01589559       0.02156149       0.00583798
C       -1.07504853       9.65757253       5.31589118       0.00000000       0.00000000       0.00000000      -0.01474792       0.01865091       0.04180108
C        0.12672112       9.81215536       4.59144651       0.00000000       0.00000000       0.00000000      -0.00489847      -0.00187885      -0.02146686
C        1.29549337      10.05842342       5.31029287       0.00000000       0.00000000       0.00000000       0.00609213      -0.02604083       0.01634056
C        2.51202190      10.32123453       4.64624329       0.00000000       0.00000000       0.00000000       0.04214941      -0.01731739       0.01115646
C        5.25166622      10.31176021       4.64684228       0.00000000       0.00000000       0.00000000      -0.04008928      -0.01088997       0.01311551
C        6.46811020      10.04866602       5.31027879       0.00000000       0.00000000       0.00000000      -0.00371925      -0.02407496       0.02016774
C        7.63789087       9.80903460       4.59116972       0.00000000       0.00000000       0.00000000       0.01253922      -0.00633871      -0.02547696
C        8.84019754       9.65654552       5.31560391       0.00000000       0.00000000       0.00000000      -0.01138121       0.01557844       0.04394205
C       -3.48297532       9.65608737       6.74676194       0.00000000       0.00000000       0.00000000       0.01538146       0.01216776      -0.03496003
C       -2.27904211       9.62753948       7.47544780       0.00000000       0.00000000       0.00000000      -0.01491514       0.02218695      -0.00552456
C       -1.07524932       9.65842236       6.74707848       0.00000000       0.00000000       0.00000000       0.00934120       0.02055691      -0.03827329
C        0.12687867       9.81495582       7.47161215       0.00000000       0.00000000       0.00000000      -0.01356664      -0.00289883       0.02345874
C        1.29559976      10.06083402       6.75287413       0.00000000       0.00000000       0.00000000      -0.00130148      -0.02629615      -0.01487474
C        2.51217474      10.32734723       7.41723551       0.00000000       0.00000000       0.00000000       0.04818561      -0.01595399      -0.01664192
C        5.25120625      10.31576148       7.41671491       0.00000000       0.00000000       0.00000000      -0.04112110      -0.00701857      -0.01682859
C        6.46786186      10.04896370       6.75281919       0.00000000       0.00000000       0.00000000      -0.00206344      -0.02138596      -0.01749068
C        7.63742350       9.80729613       7.47150374       0.00000000       0.00000000       0.00000000       0.00330318      -0.00388163       0.02743961
C       -4.71809065       9.83272774       8.89644330       0.00000000       0.00000000       0.00000000      -0.02780495       0.00839347      -0.02028398
C       -3.50245504       9.77922713       9.62482880       0.00000000       0.00000000       0.00000000      -0.02063799       0.00777756       0.00443434
C       -2.27949655       9.70863162       8.90669871       0.00000000       0.00000000       0.00000000       0.00835949       0.00328096      -0.00620178
C       -1.05628445       9.78235867       9.62461581       0.00000000       0.00000000       0.00000000       0.00941280       0.00877541       0.00699057
C        0.15922147       9.83959121       8.89658284       0.00000000       0.00000000       0.00000000       0.02999004       0.01152772      -0.02366477
C        1.40470657       9.95187110       9.57278232       0.00000000       0.00000000       0.00000000      -0.03301977       0.00407826       0.01391418
C        2.61572662      10.13008574       8.82440612       0.00000000       0.00000000       0.00000000       0.00462995      -0.00897009       0.01921746
C        3.88187787      10.09875364       9.52482898       0.00000000       0.00000000       0.00000000      -0.00129148      -0.00926875      -0.00250266
C        5.14759392      10.12216901       8.82402843       0.00000000       0.00000000       0.00000000      -0.00206401      -0.00353393       0.01830045
C        6.35890317       9.94374841       9.57242447       0.00000000       0.00000000       0.00000000       0.03100286       0.00515145       0.01017724
C        3.94182734      14.12463240       5.46194061       0.00000000       0.00000000       0.00000000      -0.00354693       0.01692763       0.00310675
C        5.21872380      14.55713352       6.18288683       0.00000000       0.00000000       0.00000000      -0.00884330       0.00644025       0.00089819
C        5.24166140      16.07388621       6.40119985       0.00000000       0.00000000       0.00000000      -0.00963522      -0.01177205      -0.00236934
C        3.98793396      16.55073764       7.14156940       0.00000000       0.00000000       0.00000000       0.00135109      -0.01343642      -0.00653879
C        2.70979776      16.10926153       6.42132020       0.00000000       0.00000000       0.00000000       0.01302466      -0.00829873       0.00267907
C        2.68880086      14.59310647       6.20271310       0.00000000       0.00000000       0.00000000       0.00967320      -0.00341357      -0.00216873
Pt       3.88289831      10.70428196       6.03281879       0.00000000       0.00000000       0.00000000      -0.00190276       0.02283839      -0.00062788
H        1.82262114      16.42683305       6.98773352       0.00000000       0.00000000       0.00000000      -0.00388192      -0.00174214       0.00376012
H        3.93982853      14.52821226       4.43598385       0.00000000       0.00000000       0.00000000      -0.00099381       0.00710031       0.00273442
H        6.10493707      14.23574588       5.61727429       0.00000000       0.00000000       0.00000000       0.00366692      -0.00621249      -0.00347321
H        5.26976659      14.04660833       7.15926267       0.00000000       0.00000000       0.00000000      -0.00566340       0.00008879      -0.00404219
H        6.14633317      16.36815996       6.95244245       0.00000000       0.00000000       0.00000000       0.00232621      -0.00362364       0.00275197
H        5.29503360      16.57775693       5.42161249       0.00000000       0.00000000       0.00000000      -0.00190157      -0.00393590       0.00345386
H        4.00452444      17.64438241       7.25417581       0.00000000       0.00000000       0.00000000      -0.00128234      -0.00131147       0.00076481
H        3.99005312      16.13134169       8.16140606       0.00000000       0.00000000       0.00000000       0.00041639      -0.00619355      -0.00318529
H        2.65366457      16.61588052       5.44335914       0.00000000       0.00000000       0.00000000       0.00349205      -0.00588181       0.00144833
H        1.78562747      14.29488800       5.65119720       0.00000000       0.00000000       0.00000000      -0.00187314      -0.00221284      -0.00018999
H        2.63967682      14.08395726       7.17986490       0.00000000       0.00000000       0.00000000       0.00395051      -0.00039075      -0.00274827
H        3.92473859      13.02133805       5.35765692       0.00000000       0.00000000       0.00000000       0.00112676      -0.00751307      -0.01212336
67
Lattice="12.3227 0.0 0.0 0.0 20.0 0.0 -6.16154 0.0 10.6715" Properties=species:S:1:pos:R:3:momenta:R:3:forces:R:3 energy=-11866.847476 pbc="T T T"
C        0.19528655       9.90275583       0.34657833       0.00000000       0.00000000       0.00000000       0.00006043       0.00042185       0.00098405
C        1.42199049       9.90243328       1.08252201       0.00000000       0.00000000       0.00000000       0.00076043       0.00046777      -0.00206491
C        2.66228267       9.88407409       0.39703540       0.00000000       0.00000000       0.00000000      -0.00088109       0.00031346       0.00176333
C        3.88970447       9.94052882       1.13055159       0.00000000       0.00000000       0.00000000       0.00130460       0.00055012      -0.00029489
C        5.11706867       9.88600499       0.39705488       0.00000000       0.00000000       0.00000000      -0.00097050       0.00065886       0.00040540
C        6.35686695       9.90574160       1.08278801       0.00000000       0.00000000       0.00000000      -0.00071692       0.00029160      -0.00119952
C        7.58328774       9.90737079       0.34665709       0.00000000       0.00000000       0.00000000       0.00397113       0.00060409       0.00124775
C        8.82333703       9.88682301       1.03231131       0.00000000       0.00000000       0.00000000      -0.00311002       0.00013394       0.00181109
C       10.05051448       9.94270628       0.29906752       0.00000000       0.00000000       0.00000000      -0.00107375       0.00068032      -0.00116841
C       11.27779735       9.88547785       1.03232386       0.00000000       0.00000000       0.00000000       0.00143209       0.00029984       0.00007708
C       -1.04930370       9.80368848       2.45846106       0.00000000       0.00000000       0.00000000       0.00115677       0.00080194       0.00068526
C        0.16697491       9.84826909       3.18529490       0.00000000       0.00000000       0.00000000      -0.00059819       0.00033757      -0.00076417
C        1.41135662       9.94802822       2.50751768       0.00000000       0.00000000       0.00000000      -0.00150305       0.00042028       0.00098647
C        2.62375155      10.11039497       3.25573764       0.00000000       0.00000000       0.00000000       0.00257218       0.00051518       0.00040064
C        3.88890106      10.08473426       2.55504812       0.00000000       0.00000000       0.00000000      -0.00169135       0.00049181       0.00087725
C        5.15268183      10.10371035       3.25682451       0.00000000       0.00000000       0.00000000       0.00043755      -0.00015988      -0.00148354
C        6.36596787       9.94687415       2.50855003       0.00000000       0.00000000       0.00000000       0.00087809       0.00065257       0.00262036
C        7.61088449       9.84607921       3.18633446       0.00000000       0.00000000       0.00000000      -0.00085918       0.00044647      -0.00064675
C        8.82687600       9.80312144       2.45890344       0.00000000       0.00000000       0.00000000       0.00062695       0.00084190      -0.00216382
C       10.05034448       9.73958552       3.17659929       0.00000000       0.00000000       0.00000000       0.00012339       0.00034618       0.00060976
C       -2.27212008       9.66690650       4.60756577       0.00000000       0.00000000       0.00000000       0.00054442       0.00066136       0.00222790
C       -1.06869847       9.68992186       5.33522581       0.00000000       0.00000000       0.00000000      -0.00180144       0.00060313      -0.00077209
C        0.13437431       9.82036083       4.60900151       0.00000000       0.00000000       0.00000000      -0.00015418       0.00042236      -0.00050824
C        1.30794376      10.03778036       5.32767931       0.00000000       0.00000000       0.00000000       0.00041072       0.00039752       0.00287120
C        2.52345034      10.29425505       4.66281409       0.00000000       0.00000000       0.00000000       0.00061680       0.00046648      -0.00138073
C        5.25357196      10.28016637       4.66603173       0.00000000       0.00000000       0.00000000       0.00057663       0.00056344       0.00139193
C        6.47018472      10.02796087       5.33069391       0.00000000       0.00000000       0.00000000      -0.00092715       0.00033610      -0.00028583
C        7.64386259       9.81577028       4.61037282       0.00000000       0.00000000       0.00000000      -0.00061323       0.00051775       0.00085775
C        8.84764301       9.68690647       5.33585750       0.00000000       0.00000000       0.00000000       0.00175191       0.00050298      -0.00174777
C       -3.47505840       9.68606884       6.76556049       0.00000000       0.00000000       0.00000000       0.00201634       0.00037496       0.00021223
C       -2.27146247       9.66713689       7.49314679       0.00000000       0.00000000       0.00000000      -0.00086848       0.00079008       0.00020250
C       -1.06838074       9.69087396       6.76491474       0.00000000       0.00000000       0.00000000       0.00242048       0.00038247      -0.00038448
C        0.13549547       9.82227439       7.49028816       0.00000000       0.00000000       0.00000000      -0.00149764       0.00032601       0.00169949
C        1.30878396      10.03682501       6.77033098       0.00000000       0.00000000       0.00000000       0.00164770       0.00060584      -0.00138887
C        2.52608524      10.29115107       7.43520396       0.00000000       0.00000000       0.00000000      -0.00067786       0.00028074      -0.00214628
C        5.25508015      10.29484780       7.43788312       0.00000000       0.00000000       0.00000000      -0.00019615       0.00036229      -0.00011441
C        6.47051540      10.03203670       6.77325850       0.00000000       0.00000000       0.00000000       0.00182628       0.00028937      -0.00039801
C        7.64406875       9.81471824       7.49177566       0.00000000       0.00000000       0.00000000      -0.00235652       0.00061120       0.00217869
C       -4.71110323       9.84510190       8.91560454       0.00000000       0.00000000       0.00000000      -0.00065218       0.00041773      -0.00165582
C       -3.49482375       9.80185436       9.64239863       0.00000000       0.00000000       0.00000000       0.00187315       0.00058538      -0.00071090
C       -2.27150953       9.73960940       8.92416419       0.00000000       0.00000000       0.00000000      -0.00105730       0.00058951       0.00121376
C       -1.04795339       9.80498600       9.64178785       0.00000000       0.00000000       0.00000000       0.00130183       0.00046787      -0.00018289
C        0.16803208       9.85142924       8.91453958       0.00000000       0.00000000       0.00000000      -0.00097810       0.00060382      -0.00081266
C        1.41275729       9.95255778       9.59255397       0.00000000       0.00000000       0.00000000      -0.00046690       0.00029723      -0.00054910
C        2.62626127      10.11125252       8.84457006       0.00000000       0.00000000       0.00000000      -0.00004552       0.00014233       0.00239335
C        3.88982498      10.08874082       9.54609013       0.00000000       0.00000000       0.00000000       0.00330464       0.00041928      -0.00070021
C        5.15470152      10.11180635       8.84517110       0.00000000       0.00000000       0.00000000      -0.00244746       0.00060553       0.00106840
C        6.36710426       9.94682637       9.59298630       0.00000000       0.00000000       0.00000000       0.00132061       0.00032350       0.00071129
C        3.93606900      14.05715339       5.44911196       0.00000000       0.00000000       0.00000000       0.00067970       0.00079221      -0.00309493
C        5.19818030      14.40647043       6.23826642       0.00000000       0.00000000       0.00000000       0.00095194      -0.00366876      -0.00190996
C        5.19571104      15.88111368       6.65126656       0.00000000       0.00000000       0.00000000      -0.00139567      -0.00131829       0.00119358
C        3.92808053      16.23924298       7.43340095       0.00000000       0.00000000       0.00000000       0.00036195      -0.00587774       0.00029291
C        2.66261777      15.87083728       6.65260069       0.00000000       0.00000000       0.00000000       0.00163160      -0.00404406       0.00166928
C        2.67200158      14.39618306       6.23976016       0.00000000       0.00000000       0.00000000      -0.00052126      -0.00028385      -0.00289989
Pt       3.89014045      10.67668068       6.05156384       0.00000000       0.00000000       0.00000000       0.00034226      -0.00000124       0.00048243
H        1.76659424      16.09749748       7.24824362       0.00000000       0.00000000       0.00000000      -0.00062980      -0.00342633       0.00164424
H        3.93316875      14.60676190       4.49325832       0.00000000       0.00000000       0.00000000      -0.00013266       0.00206332      -0.00177664
H        6.09663931      14.17103253       5.64974832       0.00000000       0.00000000       0.00000000      -0.00056452      -0.00026702      -0.00252492
H        5.24181676      13.77344269       7.14059208       0.00000000       0.00000000       0.00000000      -0.00003896      -0.00267294      -0.00457732
H        6.09042862      16.11515851       7.24603300       0.00000000       0.00000000       0.00000000       0.00055099      -0.00359015       0.00134797
H        5.24970199      16.50801579       5.74556460       0.00000000       0.00000000       0.00000000       0.00019330      -0.00058690       0.00202936
H        3.92387648      17.31013733       7.68288227       0.00000000       0.00000000       0.00000000       0.00015192      -0.00291310       0.00420177
H        3.93076798      15.69436296       8.39195069       0.00000000       0.00000000       0.00000000       0.00004522      -0.00591463       0.00051141
H        2.60251668      16.49714697       5.74691505       0.00000000       0.00000000       0.00000000      -0.00004399       0.00009801       0.00120406
H        1.77494526      14.15287946       5.65232882       0.00000000       0.00000000       0.00000000       0.00011860      -0.00057379      -0.00257852
H        2.63460388      13.76307906       7.14227104       0.00000000       0.00000000       0.00000000       0.00013251      -0.00389054      -0.00302296
H        3.94004197      12.98178282       5.18693645       0.00000000       0.00000000       0.00000000       0.00009215       0.00009666      -0.00550476
67
Lattice="12.3227 0.0 0.0 0.0 20.0 0.0 -6.16154 0.0 10.6715" Properties=species:S:1:pos:R:3:momenta:R:3:forces:R:3 energy=-11866.853728 pbc="T T T"
C        0.19538534       9.85847476       0.34699462       0.00000000       0.00000000       0.00000000      -0.00098492       0.00036823       0.00156788
C        1.42214625       9.85669154       1.08279141       0.00000000       0.00000000       0.00000000      -0.00156015       0.00014695      -0.00011935
C        2.66253521       9.84056500       0.39743723       0.00000000       0.00000000       0.00000000       0.00272201       0.00042814       0.00026281
C        3.89010413       9.89653418       1.13087499       0.00000000       0.00000000       0.00000000      -0.00193206       0.00055208      -0.00105196
C        5.11732341       9.84235245       0.39743445       0.00000000       0.00000000       0.00000000       0.00037147       0.00030052       0.00088159
C        6.35698375       9.86330997       1.08325044       0.00000000       0.00000000       0.00000000       0.00109822       0.00056164      -0.00193768
C        7.58331525       9.86352203       0.34703923       0.00000000       0.00000000       0.00000000      -0.00137484       0.00030926       0.00115300
C        8.82328137       9.84380757       1.03266148       0.00000000       0.00000000       0.00000000      -0.00039316       0.00061080      -0.00012942
C       10.05050067       9.89881395       0.29947001       0.00000000       0.00000000       0.00000000       0.00070844       0.00023289      -0.00162091
C       11.27779721       9.84103139       1.03271310       0.00000000       0.00000000       0.00000000       0.00139152       0.00043797       0.00048151
C       -1.04957857       9.75821180       2.45857188       0.00000000       0.00000000       0.00000000       0.00130027       0.00053394      -0.00086139
C        0.16687793       9.79940375       3.18518653       0.00000000       0.00000000       0.00000000      -0.00297000      -0.00010591       0.00181364
C        1.41103702       9.89960141       2.50758506       0.00000000       0.00000000       0.00000000       0.00272596       0.00072961      -0.00051470
C        2.62325350      10.06284296       3.25579683       0.00000000       0.00000000       0.00000000      -0.00160071       0.00069309       0.00002701
C        3.88872704      10.03967875       2.55539092       0.00000000       0.00000000       0.00000000       0.00034915       0.00021857       0.00150206
C        5.15209985      10.06097208       3.25727882       0.00000000       0.00000000       0.00000000       0.00091229       0.00045986      -0.00166937
C        6.36580389       9.90713571       2.50901218       0.00000000       0.00000000       0.00000000      -0.00206451       0.00042562       0.00184175
C        7.61087874       9.80864777       3.18697987       0.00000000       0.00000000       0.00000000       0.00320603       0.00032120      -0.00055672
C        8.82666995       9.76269367       2.45942295       0.00000000       0.00000000       0.00000000      -0.00184553       0.00036687       0.00130073
C       10.05011155       9.69731908       3.17690426       0.00000000       0.00000000       0.00000000      -0.00011986       0.00005193       0.00157339
C       -2.27247596       9.62575722       4.60792326       0.00000000       0.00000000       0.00000000       0.00089373       0.00037698      -0.00101442
C       -1.06896230       9.64342995       5.33539230       0.00000000       0.00000000       0.00000000      -0.00162950       0.00026560       0.00005020
C        0.13427236       9.76922715       4.60874972       0.00000000       0.00000000       0.00000000       0.00361198       0.00118300      -0.00135788
C        1.30827689       9.98420837       5.32718412       0.00000000       0.00000000       0.00000000      -0.00375356      -0.00039632       0.00084177
C        2.52300837      10.24402271       4.66248564       0.00000000       0.00000000       0.00000000       0.00204772       0.00068865      -0.00086524
C        5.25267608      10.23792080       4.66693068       0.00000000       0.00000000       0.00000000      -0.00043294       0.00042177       0.00027537
C        6.47052730       9.99218961       5.33191095       0.00000000       0.00000000       0.00000000       0.00326606       0.00017510      -0.00062371
C        7.64413203       9.78119540       4.61120858       0.00000000       0.00000000       0.00000000      -0.00410067       0.00058549       0.00113707
C        8.84777119       9.65110984       5.33647500       0.00000000       0.00000000       0.00000000       0.00061525       0.00050832      -0.00045946
C       -3.47474342       9.64998076       6.76611077       0.00000000       0.00000000       0.00000000      -0.00146524       0.00032247       0.00195378
C       -2.27138145       9.62647497       7.49360345       0.00000000       0.00000000       0.00000000       0.00339825       0.00023965      -0.00204876
C       -1.06845124       9.64518373       6.76507669       0.00000000       0.00000000       0.00000000      -0.00173848       0.00036148       0.00272368
C        0.13583550       9.77234624       7.49042072       0.00000000       0.00000000       0.00000000      -0.00312655      -0.00017250       0.00062796
C        1.30948049       9.98130403       6.76974955       0.00000000       0.00000000       0.00000000       0.00399061       0.00156663      -0.00103999
C        2.52698280      10.23389386       7.43438132       0.00000000       0.00000000       0.00000000      -0.00077957       0.00030607      -0.00176856
C        5.25547165      10.25724297       7.43949417       0.00000000       0.00000000       0.00000000       0.00086779       0.00029893      -0.00028151
C        6.47134360       9.99777942       6.77456106       0.00000000       0.00000000       0.00000000      -0.00118984       0.00045918      -0.00004739
C        7.64480539       9.77971918       7.49264193       0.00000000       0.00000000       0.00000000       0.00074222       0.00019819      -0.00005072
C       -4.71048018       9.80724839       8.91633963       0.00000000       0.00000000       0.00000000      -0.00061722       0.00056851      -0.00063856
C       -3.49421316       9.76139781       9.64286849       0.00000000       0.00000000       0.00000000      -0.00091261       0.00027811       0.00137010
C       -2.27117187       9.69789646       8.92459997       0.00000000       0.00000000       0.00000000      -0.00038099       0.00038409       0.00021969
C       -1.04745811       9.76045096       9.64214792       0.00000000       0.00000000       0.00000000       0.00117344       0.00038592      -0.00119269
C        0.16848605       9.80385141       8.91467974       0.00000000       0.00000000       0.00000000       0.00029758       0.00050870       0.00135099
C        1.41334911       9.90511639       9.59276572       0.00000000       0.00000000       0.00000000      -0.00149365       0.00014901      -0.00025987
C        2.62713273      10.06067222       8.84469101       0.00000000       0.00000000       0.00000000       0.00176849       0.00069770       0.00154257
C        3.89038073      10.04373145       9.54645678       0.00000000       0.00000000       0.00000000      -0.00088995       0.00026138       0.00035502
C        5.15560994      10.07167119       8.84595662       0.00000000       0.00000000       0.00000000      -0.00031705       0.00037624       0.00057416
C        6.36783908       9.90682428       9.59388939       0.00000000       0.00000000       0.00000000       0.00090543       0.00030040      -0.00068026
C        3.92118351      14.01626328       5.62594885       0.00000000       0.00000000       0.00000000       0.00043673      -0.00015224      -0.00271817
C        5.16540087      14.33379838       6.45596676       0.00000000       0.00000000       0.00000000       0.00018828      -0.00068766      -0.00247641
C        5.11875477      15.77004592       6.98485088       0.00000000       0.00000000       0.00000000       0.00030237      -0.00002740       0.00186504
C        3.83423163      16.03083623       7.77782398       0.00000000       0.00000000       0.00000000       0.00044892      -0.00746647       0.00193548
C        2.58695091      15.69305954       6.95499496       0.00000000       0.00000000       0.00000000       0.00004715       0.00095952       0.00076661