120
Lattice="9.9798 0.0 0.0 0.0 24.6404 0.0 -0.764003 0.0 12.6618" Properties=species:S:1:pos:R:3:momenta:R:3:initial_magmoms:R:1:forces:R:3 energy=-263919.63951 stress="0.00988536115306171 -7.301873119430805e-05 -0.0007747572412336128 -7.301873119430805e-05 0.004272714665616471 -0.00013075630806258737 -0.0007747572412336128 -0.00013075630806258737 0.006086780315038286" magmom=141.37 free_energy=-263919.63951 pbc="T T T"
C        4.17475176       7.44925476       9.26442492       0.00000000       0.00000000       0.00000000       0.00000000      -0.00042047       0.00162100      -0.00301786
C        2.23900766       7.24623800       4.27540213       0.00000000       0.00000000       0.00000000       0.00000000      -0.00275492      -0.00956918       0.00149233
C        3.38004740       7.21555446      11.89680449       0.00000000       0.00000000       0.00000000       0.00000000      -0.00239309      -0.00310776      -0.00113139
C       -0.34306483       6.39848237       6.78886840       0.00000000       0.00000000       0.00000000       0.00000000      -0.00094476      -0.00507612      -0.00167796
C        1.71703793       6.19802266       1.62945631       0.00000000       0.00000000       0.00000000       0.00000000      -0.00163545      -0.00184754      -0.00108835
C        2.17264401       5.67594074       8.28798630       0.00000000       0.00000000       0.00000000       0.00000000       0.00158910       0.00057571       0.00279257
C        4.22198441       5.31857324       3.14372019       0.00000000       0.00000000       0.00000000       0.00000000       0.00048632       0.00160335      -0.00002369
C       -0.31287816       4.27197091      10.80867962       0.00000000       0.00000000       0.00000000       0.00000000      -0.00101501      -0.00001933       0.00212563
C        1.73511373       4.01629633       5.70896330       0.00000000       0.00000000       0.00000000       0.00000000      -0.00033303      -0.00069066       0.00235603
C        2.19412895       3.64086290      12.34052582       0.00000000       0.00000000       0.00000000       0.00000000      -0.00156060       0.00054339       0.00036305
C        4.24123321       3.36086536       7.20431069       0.00000000       0.00000000       0.00000000       0.00000000       0.06367862      -0.03129640       0.01202148
C        0.48301315       2.34192112       2.23050260       0.00000000       0.00000000       0.00000000       0.00000000      -0.03883177      -0.01238112       0.00711676
C        1.74544939       2.00705257       9.72882088       0.00000000       0.00000000       0.00000000       0.00000000      -0.05044458       0.02355961       0.00304743
C        2.99884770       1.47028031       3.77815452       0.00000000       0.00000000       0.00000000       0.00000000       0.06109539      -0.08482957       0.01393515
C        4.22355296       1.28801757      11.29065347       0.00000000       0.00000000       0.00000000       0.00000000       0.01267205      -0.00410839       0.00485074
C        0.53633134       0.45978173       6.13008396       0.00000000       0.00000000       0.00000000       0.00000000      -0.00095535       0.03905223      -0.03418117
C        2.46337690       0.40852036       1.12943253       0.00000000       0.00000000       0.00000000       0.00000000       0.03785950       0.01415753      -0.00773015
C       -0.23343683       0.18579822       8.73879438       0.00000000       0.00000000       0.00000000       0.00000000      -0.01903707      -0.02488726       0.01176642
C        9.16032258       7.50299774       9.35585323       0.00000000       0.00000000       0.00000000       0.00000000       0.00256277       0.00669954      -0.00371871
C        7.22780519       7.24224349       4.23535954       0.00000000       0.00000000       0.00000000       0.00000000       0.00100619      -0.00447042      -0.00162843
C        8.48863880       7.15589434      12.00428494       0.00000000       0.00000000       0.00000000       0.00000000      -0.00316702       0.00069971      -0.00558611
C        4.68084364       6.32782946       6.77008586       0.00000000       0.00000000       0.00000000       0.00000000       0.00041965      -0.00433339      -0.00220196
C        6.69704364       6.22062010       1.54933306       0.00000000       0.00000000       0.00000000       0.00000000      -0.00058232      -0.00250607       0.00034336
C        7.16152911       5.61850264       8.28379318       0.00000000       0.00000000       0.00000000       0.00000000       0.00009943       0.00619604      -0.00198833
C        9.20812031       5.30490707       3.12405863       0.00000000       0.00000000       0.00000000       0.00000000      -0.00189305      -0.00208570      -0.00172556
C        4.66756587       4.27305445      10.81118991       0.00000000       0.00000000       0.00000000       0.00000000       0.00049879      -0.00472932      -0.00249708
C        6.73052206       4.01401451       5.70341051       0.00000000       0.00000000       0.00000000       0.00000000       0.00095748      -0.00044999       0.00351846
C        7.18109183       3.65689256      12.33838668       0.00000000       0.00000000       0.00000000       0.00000000      -0.00134292       0.00165539       0.00036381
C        9.23113321       3.36086536       7.20431069       0.00000000       0.00000000       0.00000000       0.00000000       0.02187751       0.07174138      -0.04534867
C        5.47291315       2.34192112       2.23050260       0.00000000       0.00000000       0.00000000       0.00000000      -0.07151357       0.02049541      -0.01060475
C        6.73534954       2.00705257       9.72882088       0.00000000       0.00000000       0.00000000       0.00000000      -0.03281229       0.00771462       0.01345233
C        7.98874770       1.47028031       3.77815452       0.00000000       0.00000000       0.00000000       0.00000000       0.05297355      -0.08303040       0.02655786
C        9.21345296       1.28801757      11.29065347       0.00000000       0.00000000       0.00000000       0.00000000       0.00567284       0.01070877       0.00257100
C        5.52623126       0.45978173       6.13008396       0.00000000       0.00000000       0.00000000       0.00000000      -0.01385222       0.06126680      -0.03271027
C        7.45327661       0.40852036       1.12943253       0.00000000       0.00000000       0.00000000       0.00000000       0.04092582      -0.00852074      -0.01799526
C        4.75646319       0.18579822       8.73879438       0.00000000       0.00000000       0.00000000       0.00000000      -0.02265823      -0.01342150       0.00357385
C        6.12015452       8.33544551      11.34656442       0.00000000       0.00000000       0.00000000       0.00000000       0.00044881      -0.00838972       0.00269851
C        6.77115113       8.45220674       7.59460584       0.00000000       0.00000000       0.00000000       0.00000000      -0.00325201       0.00710579       0.00375664
Fe       3.20948041       7.17916801       7.72095163       0.00000000       0.00000000       0.00000000       2.00000000       0.00183877      -0.00136575      -0.00397674
Fe       2.50650664       7.09497078      10.19678261       0.00000000       0.00000000       0.00000000       2.00000000      -0.00255957       0.00726127      -0.00337719
Fe       2.50682881       7.05170771       0.08520627       0.00000000       0.00000000       0.00000000       2.00000000      -0.00522593      -0.00205276      -0.00380739
Fe       3.90698785       6.97476567       5.14337537       0.00000000       0.00000000       0.00000000       2.00000000      -0.00034681      -0.00441080      -0.00197892
Fe       0.01782421       6.90186303      10.91967657       0.00000000       0.00000000       0.00000000       2.00000000      -0.00030459       0.00610211      -0.00317588
Fe       3.19052391       6.91809758       2.69560531       0.00000000       0.00000000       0.00000000       2.00000000      -0.00320879      -0.00257915      -0.00032158
Fe       0.66919953       6.93217623       8.38512918       0.00000000       0.00000000       0.00000000       2.00000000       0.00236814       0.00037138      -0.00231988
Fe       1.38822848       6.80843257       5.89337452       0.00000000       0.00000000       0.00000000       2.00000000      -0.00087975      -0.01584294      -0.00073098
Fe       0.70281108       6.71457245       3.32876887       0.00000000       0.00000000       0.00000000       2.00000000      -0.00441539       0.00060937      -0.00231458
Fe      -0.00739127       6.63186805       0.92442086       0.00000000       0.00000000       0.00000000       2.00000000       0.00070558       0.00172826      -0.00165938
Fe       3.24428804       5.19677174      11.76257325       0.00000000       0.00000000       0.00000000       2.00000000      -0.00054382      -0.00194150      -0.00261992
Fe       3.89681804       5.09304571       9.22229328       0.00000000       0.00000000       0.00000000       2.00000000       0.00172266       0.00098494       0.00136072
Fe       2.53388294       5.05678067       4.23799462       0.00000000       0.00000000       0.00000000       2.00000000      -0.00087571      -0.00362307      -0.00001133
Fe       3.19356104       4.93623611       6.76657288       0.00000000       0.00000000       0.00000000       2.00000000      -0.00101671      -0.00299118       0.00222729
Fe       0.69193806       4.89319776      12.42565978       0.00000000       0.00000000       0.00000000       2.00000000      -0.00219117       0.00000830       0.00027002
Fe       3.22346857       4.84194163       1.49012045       0.00000000       0.00000000       0.00000000       2.00000000       0.00024033      -0.00142289      -0.00158910
Fe       1.39745409       4.79664556       9.86536723       0.00000000       0.00000000       0.00000000       2.00000000      -0.00236541      -0.00169047       0.00031224
Fe       0.71210016       4.73467745       7.28738776       0.00000000       0.00000000       0.00000000       2.00000000       0.00054903      -0.00050261       0.00095911
Fe       0.03498126       4.71922881       4.84944531       0.00000000       0.00000000       0.00000000       2.00000000      -0.00210052      -0.00591175      -0.00154540
Fe       0.76599328       4.52184944       2.20307327       0.00000000       0.00000000       0.00000000       2.00000000      -0.00268311       0.00158508      -0.00126643
Fe       3.93731353       3.13283995       3.16924842       0.00000000       0.00000000       0.00000000       2.00000000       0.09898771       0.04865648       0.02862250
Fe       4.66456486       2.92759821       0.51178995       0.00000000       0.00000000       0.00000000       2.00000000       0.01701273       0.06169071       0.05811550
Fe       3.20087064       2.92131317      10.75315992       0.00000000       0.00000000       0.00000000       2.00000000       0.13008206       0.10812316       0.17428774
Fe       2.53435969       2.89047763       8.16572116       0.00000000       0.00000000       0.00000000       2.00000000      -0.01883121      -0.08198217       0.02091575
Fe       1.47147951       2.80995198       3.88995835       0.00000000       0.00000000       0.00000000       2.00000000       0.02376550       0.08067035      -0.01719068
Fe       3.24621836       2.75908344       5.59714882       0.00000000       0.00000000       0.00000000       2.00000000       0.01787746      -0.01464390       0.02173234
Fe       0.73553081       2.69918011      11.29863067       0.00000000       0.00000000       0.00000000       2.00000000      -0.02442725       0.20882857      -0.07537753
Fe       0.03280449       2.64065184       8.84249498       0.00000000       0.00000000       0.00000000       2.00000000       0.00083823       0.09384810      -0.03100961
Fe       2.17244234       2.58487312       1.15462958       0.00000000       0.00000000       0.00000000       2.00000000       0.00103985       0.16954498      -0.07545933
Fe       0.70099561       2.47311925       6.28063269       0.00000000       0.00000000       0.00000000       2.00000000      -0.09350896       0.08820085       0.03821432
Fe      -0.26348528       0.98044869       4.52634013       0.00000000       0.00000000       0.00000000       2.00000000       0.01302999      -0.09306918      -0.00987110
Fe       3.99426350       0.94980978       2.08400568       0.00000000       0.00000000       0.00000000       2.00000000       0.00177822      -0.08415712       0.04096254
Fe       2.50698828       0.88185403      12.16127855       0.00000000       0.00000000       0.00000000       2.00000000       0.03025971      -0.18839446       0.01799659
Fe       3.93888441       0.77913458       7.14163495       0.00000000       0.00000000       0.00000000       2.00000000       0.04118286      -0.21746371      -0.01387297
Fe       3.24184221       0.74751362       9.65816794       0.00000000       0.00000000       0.00000000       2.00000000      -0.01420654      -0.06395177      -0.02366065
Fe       1.51178947       0.73376524       2.71000502       0.00000000       0.00000000       0.00000000       2.00000000      -0.00690877      -0.01299711      -0.09691545
Fe       0.79459409       0.66757719       0.24639863       0.00000000       0.00000000       0.00000000       2.00000000      -0.07553943      -0.00560347       0.03723362
Fe       1.41915462       0.60492430       7.83182963       0.00000000       0.00000000       0.00000000       2.00000000       0.03491317      -0.13783513      -0.00209070
Fe       2.19595314       0.60374596       5.31086541       0.00000000       0.00000000       0.00000000       2.00000000      -0.00206262      -0.09397376       0.02128226
Fe       0.69458152       0.50652580      10.28859852       0.00000000       0.00000000       0.00000000       2.00000000      -0.07059667      -0.10687684      -0.08821096
Fe       8.18261456       7.16704819       7.85432102       0.00000000       0.00000000       0.00000000       2.00000000      -0.00056725       0.00399231      -0.00321838
Fe       7.50916948       7.39087878      10.39208833       0.00000000       0.00000000       0.00000000       2.00000000      -0.00082037       0.01217071      -0.00121570
Fe       7.52534775       7.16558197       0.05402511       0.00000000       0.00000000       0.00000000       2.00000000      -0.00380000       0.00211719      -0.00163776
Fe       8.90272407       6.99058593       5.13268341       0.00000000       0.00000000       0.00000000       2.00000000       0.00052317      -0.00625818      -0.00299912
Fe       4.95054889       7.00178296      10.88967660       0.00000000       0.00000000       0.00000000       2.00000000       0.00033975       0.00941224       0.00073392
Fe       8.17763886       6.91387610       2.66574409       0.00000000       0.00000000       0.00000000       2.00000000       0.00036234      -0.00405067      -0.00146450
Fe       5.70370483       6.98780099       8.30202969       0.00000000       0.00000000       0.00000000       2.00000000       0.00170564       0.00390838      -0.00271302
Fe       6.36760600       6.87446822       5.86340687       0.00000000       0.00000000       0.00000000       2.00000000      -0.00279674      -0.00681032      -0.00501069
Fe       5.70179527       6.70940674       3.27655245       0.00000000       0.00000000       0.00000000       2.00000000      -0.00156556       0.00179741      -0.00115382
Fe       4.95836937       6.71610598       0.85506965       0.00000000       0.00000000       0.00000000       2.00000000      -0.00270786      -0.00625211       0.00017310
Fe       8.24004176       5.18961068      11.75448343       0.00000000       0.00000000       0.00000000       2.00000000      -0.00376864       0.00163899      -0.00654983
Fe       8.85669789       5.08370813       9.24590520       0.00000000       0.00000000       0.00000000       2.00000000       0.00086963      -0.00473623      -0.00255242
Fe       7.52473686       5.06676179       4.23471871       0.00000000       0.00000000       0.00000000       2.00000000      -0.00082115      -0.00376548       0.00092496
Fe       8.20387264       4.95626400       6.75201380       0.00000000       0.00000000       0.00000000       2.00000000       0.00104588      -0.00102504       0.00252129
Fe       5.68461942       4.93691554      12.40636400       0.00000000       0.00000000       0.00000000       2.00000000      -0.00230949       0.00118173      -0.00249799
Fe       8.20033297       4.84122608       1.47026762       0.00000000       0.00000000       0.00000000       2.00000000       0.00102331      -0.00102724      -0.00586900
Fe       6.37484976       4.88903749       9.89692253       0.00000000       0.00000000       0.00000000       2.00000000       0.00053277       0.00328536      -0.00270202
Fe       5.71839059       4.73207015       7.26951386       0.00000000       0.00000000       0.00000000       2.00000000       0.00137963       0.00029489      -0.00072587
Fe       5.03137133       4.72588448       4.85033415       0.00000000       0.00000000       0.00000000       2.00000000      -0.00252268      -0.00240005       0.00108063
Fe       5.74877038       4.53066223       2.18648651       0.00000000       0.00000000       0.00000000       2.00000000       0.00025055       0.00064324       0.00207562
Fe       8.92721323       3.13283995       3.16924842       0.00000000       0.00000000       0.00000000       2.00000000       0.03445911       0.04947774       0.00683512
Fe       9.65446486       2.92759821       0.51178995       0.00000000       0.00000000       0.00000000       2.00000000      -0.01332532       0.02314281       0.13608486
Fe       8.19077064       2.92131317      10.75315992       0.00000000       0.00000000       0.00000000       2.00000000       0.00524236       0.10742892       0.09630703
Fe       7.52425968       2.89047763       8.16572116       0.00000000       0.00000000       0.00000000       2.00000000      -0.02661044       0.05341444       0.09732103
Fe       6.46137965       2.80995198       3.88995835       0.00000000       0.00000000       0.00000000       2.00000000       0.03366956       0.11288181      -0.06281796
Fe       8.23611836       2.75908344       5.59714882       0.00000000       0.00000000       0.00000000       2.00000000       0.02523330       0.08338585       0.06775021
Fe       5.72543066       2.69918011      11.29863067       0.00000000       0.00000000       0.00000000       2.00000000      -0.01903964       0.37433466      -0.00581324
Fe       5.02270449       2.64065184       8.84249498       0.00000000       0.00000000       0.00000000       2.00000000       0.02211718       0.16205745       0.00312390
Fe       7.16234219       2.58487312       1.15462958       0.00000000       0.00000000       0.00000000       2.00000000      -0.07140353       0.18507625      -0.12233118
Fe       5.69089539       2.47311925       6.28063269       0.00000000       0.00000000       0.00000000       2.00000000      -0.07786000       0.03903606      -0.03039441
Fe       4.72641471       0.98044869       4.52634013       0.00000000       0.00000000       0.00000000       2.00000000      -0.01263443      -0.08081345      -0.01500042
Fe       8.98416350       0.94980978       2.08400568       0.00000000       0.00000000       0.00000000       2.00000000       0.03572266      -0.08686565       0.03759060
Fe       7.49688828       0.88185403      12.16127855       0.00000000       0.00000000       0.00000000       2.00000000       0.02585987      -0.15452832       0.00237469
Fe       8.92878471       0.77913458       7.14163495       0.00000000       0.00000000       0.00000000       2.00000000       0.03018066      -0.19732843      -0.02067549
Fe       8.23174221       0.74751362       9.65816794       0.00000000       0.00000000       0.00000000       2.00000000       0.00726692      -0.04773901      -0.01462038
Fe       6.50168932       0.73376524       2.71000502       0.00000000       0.00000000       0.00000000       2.00000000      -0.02207088      -0.01098125      -0.08798695
Fe       5.78449409       0.66757719       0.24639863       0.00000000       0.00000000       0.00000000       2.00000000      -0.06400159      -0.00694915       0.02874115
Fe       6.40905448       0.60492430       7.83182963       0.00000000       0.00000000       0.00000000       2.00000000       0.04690183      -0.16027022       0.02808142
Fe       7.18585314       0.60374596       5.31086541       0.00000000       0.00000000       0.00000000       2.00000000      -0.01331720      -0.06783596       0.00876659
Fe       5.68448167       0.50652580      10.28859852       0.00000000       0.00000000       0.00000000       2.00000000      -0.06416815      -0.11706008      -0.06057027
H        5.98873656       9.42560469      11.37126340       0.00000000       0.00000000       0.00000000       0.00000000       0.00224290       0.01704138       0.01703171
O        6.63768823       9.61300933       7.37876161       0.00000000       0.00000000       0.00000000       0.00000000      -0.00067938       0.00526414      -0.00427722
120
Lattice="9.9798 0.0 0.0 0.0 24.6404 0.0 -0.764003 0.0 12.6618" Properties=species:S:1:pos:R:3:initial_magmoms:R:1:momenta:R:3 pbc="T T T"
C        4.19615829       7.52857560       9.27016939       0.00000000       0.00000000       0.00000000       0.00000000
C        2.23940874       7.24564639       4.26968811       0.00000000       0.00000000       0.00000000       0.00000000
C        3.38689666       7.20473769      11.89153479       0.00000000       0.00000000       0.00000000       0.00000000
C       -0.33551463       6.39412729       6.77929296       0.00000000       0.00000000       0.00000000       0.00000000
C        1.71154872       6.20461302       1.61786838       0.00000000       0.00000000       0.00000000       0.00000000
C        2.18504330       5.69210834       8.29832525       0.00000000       0.00000000       0.00000000       0.00000000
C        4.22075227       5.31842446       3.14201997       0.00000000       0.00000000       0.00000000       0.00000000
C       -0.31445022       4.27067512      10.80672448       0.00000000       0.00000000       0.00000000       0.00000000
C        1.73722444       4.01688257       5.71239809       0.00000000       0.00000000       0.00000000       0.00000000
C        2.19141815       3.64107179      12.34125988       0.00000000       0.00000000       0.00000000       0.00000000
C        4.24123321       3.36086536       7.20431069       0.00000000       0.00000000       0.00000000       0.00000000
C        0.48301315       2.34192112       2.23050260       0.00000000       0.00000000       0.00000000       0.00000000
C        1.74544939       2.00705257       9.72882088       0.00000000       0.00000000       0.00000000       0.00000000
C        2.99884770       1.47028031       3.77815452       0.00000000       0.00000000       0.00000000       0.00000000
C        4.22355296       1.28801757      11.29065347       0.00000000       0.00000000       0.00000000       0.00000000
C        0.53633134       0.45978173       6.13008396       0.00000000       0.00000000       0.00000000       0.00000000
C        2.46337690       0.40852036       1.12943253       0.00000000       0.00000000       0.00000000       0.00000000
C       -0.23343683       0.18579822       8.73879438       0.00000000       0.00000000       0.00000000       0.00000000
C        9.16149038       7.50893969       9.34199239       0.00000000       0.00000000       0.00000000       0.00000000
C        7.22943650       7.24299822       4.23106944       0.00000000       0.00000000       0.00000000       0.00000000
C        8.46217193       7.17231139      11.98585003       0.00000000       0.00000000       0.00000000       0.00000000
C        4.68450457       6.32699368       6.77269651       0.00000000       0.00000000       0.00000000       0.00000000
C        6.69424440       6.21348807       1.55523281       0.00000000       0.00000000       0.00000000       0.00000000
C        7.16346843       5.62722385       8.28139644       0.00000000       0.00000000       0.00000000       0.00000000
C        9.20846237       5.30650211       3.12901809       0.00000000       0.00000000       0.00000000       0.00000000
C        4.67087759       4.28089049      10.81935584       0.00000000       0.00000000       0.00000000       0.00000000
C        6.73115531       4.01443596       5.70439659       0.00000000       0.00000000       0.00000000       0.00000000
C        7.18333461       3.65641166      12.33815152       0.00000000       0.00000000       0.00000000       0.00000000
C        9.23113321       3.36086536       7.20431069       0.00000000       0.00000000       0.00000000       0.00000000
C        5.47291315       2.34192112       2.23050260       0.00000000       0.00000000       0.00000000       0.00000000
C        6.73534954       2.00705257       9.72882088       0.00000000       0.00000000       0.00000000       0.00000000
C        7.98874770       1.47028031       3.77815452       0.00000000       0.00000000       0.00000000       0.00000000
C        9.21345296       1.28801757      11.29065347       0.00000000       0.00000000       0.00000000       0.00000000
C        5.52623126       0.45978173       6.13008396       0.00000000       0.00000000       0.00000000       0.00000000
C        7.45327661       0.40852036       1.12943253       0.00000000       0.00000000       0.00000000       0.00000000
C        4.75646319       0.18579822       8.73879438       0.00000000       0.00000000       0.00000000       0.00000000
C        5.99763407       8.34050655      11.02450610       0.00000000       0.00000000       0.00000000       0.00000000
C        6.79327339       8.44665568       7.53491282       0.00000000       0.00000000       0.00000000       0.00000000
Fe       3.22745029       7.19012316       7.72652088       2.00000000       0.00000000       0.00000000       0.00000000
Fe       2.51903492       7.08551616      10.18504469       2.00000000       0.00000000       0.00000000       0.00000000
Fe       2.50727737       7.05416408       0.07362350       2.00000000       0.00000000       0.00000000       0.00000000
Fe       3.90720119       6.97524509       5.14306769       2.00000000       0.00000000       0.00000000       0.00000000
Fe       0.00459127       6.91898870      10.91502345       2.00000000       0.00000000       0.00000000       0.00000000
Fe       3.18938821       6.91695982       2.69047915       2.00000000       0.00000000       0.00000000       0.00000000
Fe       0.67573875       6.93703842       8.37905133       2.00000000       0.00000000       0.00000000       0.00000000
Fe       1.39462521       6.81383509       5.89149221       2.00000000       0.00000000       0.00000000       0.00000000
Fe       0.70363472       6.71577170       3.31997792       2.00000000       0.00000000       0.00000000       0.00000000
Fe      -0.01239408       6.65000730       0.90751584       2.00000000       0.00000000       0.00000000       0.00000000
Fe       3.24207717       5.19089695      11.76569498       2.00000000       0.00000000       0.00000000       0.00000000
Fe       3.89604843       5.06701914       9.21830714       2.00000000       0.00000000       0.00000000       0.00000000
Fe       2.53358198       5.05682706       4.23864848       2.00000000       0.00000000       0.00000000       0.00000000
Fe       3.19343824       4.94191819       6.76972414       2.00000000       0.00000000       0.00000000       0.00000000
Fe       0.68681911       4.89761019      12.42467040       2.00000000       0.00000000       0.00000000       0.00000000
Fe       3.21777482       4.84145929       1.49052681       2.00000000       0.00000000       0.00000000       0.00000000
Fe       1.39773304       4.79915071       9.86853693       2.00000000       0.00000000       0.00000000       0.00000000
Fe       0.71606029       4.73587813       7.29354281       2.00000000       0.00000000       0.00000000       0.00000000
Fe       0.03771859       4.72163377       4.85244796       2.00000000       0.00000000       0.00000000       0.00000000
Fe       0.76440787       4.52512286       2.20203032       2.00000000       0.00000000       0.00000000       0.00000000
Fe       3.93731353       3.13283995       3.16924842       2.00000000       0.00000000       0.00000000       0.00000000
Fe       4.66456486       2.92759821       0.51178995       2.00000000       0.00000000       0.00000000       0.00000000
Fe       3.20087064       2.92131317      10.75315992       2.00000000       0.00000000       0.00000000       0.00000000
Fe       2.53435969       2.89047763       8.16572116       2.00000000       0.00000000       0.00000000       0.00000000
Fe       1.47147951       2.80995198       3.88995835       2.00000000       0.00000000       0.00000000       0.00000000
Fe       3.24621836       2.75908344       5.59714882       2.00000000       0.00000000       0.00000000       0.00000000
Fe       0.73553081       2.69918011      11.29863067       2.00000000       0.00000000       0.00000000       0.00000000
Fe       0.03280449       2.64065184       8.84249498       2.00000000       0.00000000       0.00000000       0.00000000
Fe       2.17244234       2.58487312       1.15462958       2.00000000       0.00000000       0.00000000       0.00000000
Fe       0.70099561       2.47311925       6.28063269       2.00000000       0.00000000       0.00000000       0.00000000
Fe      -0.26348528       0.98044869       4.52634013       2.00000000       0.00000000       0.00000000       0.00000000
Fe       3.99426350       0.94980978       2.08400568       2.00000000       0.00000000       0.00000000       0.00000000
Fe       2.50698828       0.88185403      12.16127855       2.00000000       0.00000000       0.00000000       0.00000000