65
Lattice="10.862 0.0 0.0 0.0 10.862 0.0 0.0 0.0 10.862" Properties=species:S:1:pos:R:3:initial_magmoms:R:1:momenta:R:3:forces:R:3 energy=-7052.6035978 stress="-0.019928796604245146 -1.8399968903103845e-06 -1.8399968903103845e-06 -1.8399968903103845e-06 -0.019928796604245146 -1.8399968903103845e-06 -1.8399968903103845e-06 -1.8399968903103845e-06 -0.019928796604245146" free_energy=-7052.6035978 pbc="T T T"
Li       5.45759018       5.45759018       5.45757931       0.00000000       0.00000000       0.00000000       0.00000000       0.00603530       0.00603530       0.00603530
Si       1.37658471       4.10838857       1.37658471       0.00000000       0.00000000       0.00000000       0.00000000      -0.00105676       0.00248582      -0.00105676
Si       1.38516569       4.09527814       6.82319340       0.00000000       0.00000000       0.00000000       0.00000000      -0.00435307       0.00303215      -0.00264878
Si       1.38520914       9.53320809       1.38520914       0.00000000       0.00000000       0.00000000       0.00000000       0.00064890      -0.00014457       0.00064890
Si       1.37661729       9.54196286       6.81005038       0.00000000       0.00000000       0.00000000       0.00000000      -0.00087518       0.00086970      -0.00225764
Si       6.82319340       4.09527814       1.38516569       0.00000000       0.00000000       0.00000000       0.00000000      -0.00264878       0.00303215      -0.00435307
Si       6.86679347       4.05213427       6.86679347       0.00000000       0.00000000       0.00000000       0.00000000      -0.03267163       0.03229416      -0.03267163
Si       6.81005038       9.54196286       1.37661729       0.00000000       0.00000000       0.00000000       0.00000000      -0.00225764       0.00086970      -0.00087518
Si       6.82332375       9.53350137       6.82332375       0.00000000       0.00000000       0.00000000       0.00000000      -0.00300003       0.00454801      -0.00300003
Si       0.02830637       0.02830637       2.74023277       0.00000000       0.00000000       0.00000000       0.00000000      -0.00040375      -0.00040375      -0.00115059
Si       0.02827379       0.02827379       8.17806497       0.00000000       0.00000000       0.00000000       0.00000000       0.00007291       0.00007291       0.00222070
Si       0.02831723       5.45923034       2.74666308       0.00000000       0.00000000       0.00000000       0.00000000       0.00007552       0.00003162       0.00103369
Si       0.02831723       5.45923034       8.17184105       0.00000000       0.00000000       0.00000000       0.00000000       0.00020513       0.00015054      -0.00092716
Si       5.45923034       0.02831723       2.74666308       0.00000000       0.00000000       0.00000000       0.00000000       0.00003162       0.00007552       0.00103369
Si       5.45923034       0.02831723       8.17184105       0.00000000       0.00000000       0.00000000       0.00000000       0.00015054       0.00020513      -0.00092716
Si       5.45942585       5.45942585       2.72708975       0.00000000       0.00000000       0.00000000       0.00000000      -0.00088299      -0.00088299       0.03069106
Si       5.45931723       5.45931723       8.19167506       0.00000000       0.00000000       0.00000000       0.00000000       0.00010405       0.00010405      -0.03310944
Si       1.37658471       1.37658471       4.10838857       0.00000000       0.00000000       0.00000000       0.00000000      -0.00105676      -0.00105676       0.00248582
Si       1.38520914       1.38520914       9.53320809       0.00000000       0.00000000       0.00000000       0.00000000       0.00064890       0.00064890      -0.00014457
Si       1.38516569       6.82319340       4.09527814       0.00000000       0.00000000       0.00000000       0.00000000      -0.00435307      -0.00264878       0.00303215
Si       1.37661729       6.81005038       9.54196286       0.00000000       0.00000000       0.00000000       0.00000000      -0.00087518      -0.00225764       0.00086970
Si       6.82319340       1.38516569       4.09527814       0.00000000       0.00000000       0.00000000       0.00000000      -0.00264878      -0.00435307       0.00303215
Si       6.81005038       1.37661729       9.54196286       0.00000000       0.00000000       0.00000000       0.00000000      -0.00225764      -0.00087518       0.00086970
Si       6.86679347       6.86679347       4.05213427       0.00000000       0.00000000       0.00000000       0.00000000      -0.03267163      -0.03267163       0.03229416
Si       6.82332375       6.82332375       9.53350137       0.00000000       0.00000000       0.00000000       0.00000000      -0.00300003      -0.00300003       0.00454801
Si       0.02830637       2.74023277       0.02830637       0.00000000       0.00000000       0.00000000       0.00000000      -0.00040375      -0.00115059      -0.00040375
Si       0.02831723       2.74666308       5.45923034       0.00000000       0.00000000       0.00000000       0.00000000       0.00007552       0.00103369       0.00003162
Si       0.02827379       8.17806497       0.02827379       0.00000000       0.00000000       0.00000000       0.00000000       0.00007291       0.00222070       0.00007291
Si       0.02831723       8.17184105       5.45923034       0.00000000       0.00000000       0.00000000       0.00000000       0.00020513      -0.00092716       0.00015054
Si       5.45923034       2.74666308       0.02831723       0.00000000       0.00000000       0.00000000       0.00000000       0.00003162       0.00103369       0.00007552
Si       5.45942585       2.72708975       5.45942585       0.00000000       0.00000000       0.00000000       0.00000000      -0.00088299       0.03069106      -0.00088299
Si       5.45923034       8.17184105       0.02831723       0.00000000       0.00000000       0.00000000       0.00000000       0.00015054      -0.00092716       0.00020513
Si       5.45931723       8.19167506       5.45931723       0.00000000       0.00000000       0.00000000       0.00000000       0.00010405      -0.03310944       0.00010405
Si       4.05172152       4.05172152       4.05172152       0.00000000       0.00000000       0.00000000       0.00000000       0.03086014       0.03086014       0.03086014
Si       4.09529986       4.09529986       9.53351223       0.00000000       0.00000000       0.00000000       0.00000000       0.00311191       0.00311191       0.00428758
Si       4.09529986       9.53351223       4.09529986       0.00000000       0.00000000       0.00000000       0.00000000       0.00311191       0.00428758       0.00311191
Si       4.10848633       9.54203890       9.54203890       0.00000000       0.00000000       0.00000000       0.00000000       0.00174661       0.00128245       0.00128245
Si       9.53351223       4.09529986       4.09529986       0.00000000       0.00000000       0.00000000       0.00000000       0.00428758       0.00311191       0.00311191
Si       9.54203890       4.10848633       9.54202804       0.00000000       0.00000000       0.00000000       0.00000000       0.00128245       0.00174661       0.00128245
Si       9.54203890       9.54203890       4.10848633       0.00000000       0.00000000       0.00000000       0.00000000       0.00128245       0.00128245       0.00174661
Si       9.53342533       9.53342533       9.53342533       0.00000000       0.00000000       0.00000000       0.00000000      -0.00048967      -0.00048967      -0.00048967
Si       2.74023277       0.02830637       0.02830637       0.00000000       0.00000000       0.00000000       0.00000000      -0.00115059      -0.00040375      -0.00040375
Si       2.74666308       0.02831723       5.45924120       0.00000000       0.00000000       0.00000000       0.00000000       0.00103369       0.00007552       0.00003162
Si       2.74666308       5.45923034       0.02831723       0.00000000       0.00000000       0.00000000       0.00000000       0.00103369       0.00003162       0.00007552
Si       2.72708975       5.45942585       5.45942585       0.00000000       0.00000000       0.00000000       0.00000000       0.03069106      -0.00088299      -0.00088299
Si       8.17806497       0.02827379       0.02827379       0.00000000       0.00000000       0.00000000       0.00000000       0.00222070       0.00007291       0.00007291
Si       8.17184105       0.02831723       5.45923034       0.00000000       0.00000000       0.00000000       0.00000000      -0.00092716       0.00020513       0.00015054
Si       8.17184105       5.45923034       0.02831723       0.00000000       0.00000000       0.00000000       0.00000000      -0.00092716       0.00015054       0.00020513
Si       8.19167506       5.45931723       5.45931723       0.00000000       0.00000000       0.00000000       0.00000000      -0.03310944       0.00010405       0.00010405
Si       4.10838857       1.37658471       1.37658471       0.00000000       0.00000000       0.00000000       0.00000000       0.00248582      -0.00105676      -0.00105676
Si       4.09527814       1.38516569       6.82319340       0.00000000       0.00000000       0.00000000       0.00000000       0.00303215      -0.00435307      -0.00264878
Si       4.09527814       6.82319340       1.38516569       0.00000000       0.00000000       0.00000000       0.00000000       0.00303215      -0.00264878      -0.00435307
Si       4.05213427       6.86679347       6.86679347       0.00000000       0.00000000       0.00000000       0.00000000       0.03229416      -0.03267163      -0.03267163
Si       9.53320809       1.38520914       1.38520914       0.00000000       0.00000000       0.00000000       0.00000000      -0.00014457       0.00064890       0.00064890
Si       9.54196286       1.37661729       6.81005038       0.00000000       0.00000000       0.00000000       0.00000000       0.00086970      -0.00087518      -0.00225764
Si       9.54196286       6.81005038       1.37661729       0.00000000       0.00000000       0.00000000       0.00000000       0.00086970      -0.00225764      -0.00087518
Si       9.53350137       6.82332375       6.82332375       0.00000000       0.00000000       0.00000000       0.00000000       0.00454801      -0.00300003      -0.00300003
Si       2.70517024       2.70517024       2.70517024       0.00000000       0.00000000       0.00000000       0.00000000      -0.01201587      -0.01201587      -0.01201587
Si       2.74129725       2.74129725       8.17731549       0.00000000       0.00000000       0.00000000       0.00000000      -0.00446274      -0.00446274       0.00416543
Si       2.74129725       8.17731549       2.74129725       0.00000000       0.00000000       0.00000000       0.00000000      -0.00446274       0.00416543      -0.00446274
Si       2.70519196       8.21346423       8.21346423       0.00000000       0.00000000       0.00000000       0.00000000      -0.01077398       0.01027393       0.01027393
Si       8.17731549       2.74129725       2.74129725       0.00000000       0.00000000       0.00000000       0.00000000       0.00416543      -0.00446274      -0.00446274
Si       8.21346423       2.70519196       8.21346423       0.00000000       0.00000000       0.00000000       0.00000000       0.01027393      -0.01077398       0.01027393
Si       8.21346423       8.21346423       2.70519196       0.00000000       0.00000000       0.00000000       0.00000000       0.01027393       0.01027393      -0.01077398
Si       8.17743498       8.17743498       8.17743498       0.00000000       0.00000000       0.00000000       0.00000000       0.00364376       0.00364376       0.00364376
