65
Lattice="10.862 0.0 0.0 0.0 10.862 0.0 0.0 0.0 10.862" Properties=species:S:1:pos:R:3:initial_magmoms:R:1:momenta:R:3:forces:R:3 energy=-7052.6037618 stress="-0.019918788968512704 1.2663397865504544e-05 1.0810293806029803e-05 1.2663397865504544e-05 -0.019919439957914533 9.854094607944489e-06 1.0810293806029803e-05 9.854094607944489e-06 -0.019919119768496377" free_energy=-7052.6037618 pbc="T T T"
Li       6.81768637       6.81768637       6.81768637       0.00000000       0.00000000       0.00000000       0.00000000       0.00087536       0.00098646       0.00087175
Si       1.38602379       4.09806967       1.38608896       0.00000000       0.00000000       0.00000000       0.00000000       0.00126246      -0.00211716       0.00002014
Si       1.38626275       4.10453256       6.81694775       0.00000000       0.00000000       0.00000000       0.00000000      -0.00027850       0.00046120       0.00066589
Si       1.38616499       9.53584756       1.38623016       0.00000000       0.00000000       0.00000000       0.00000000       0.00068183       0.00189837      -0.00017101
Si       1.38624103       9.52953674       6.81684999       0.00000000       0.00000000       0.00000000       0.00000000       0.00046681       0.00004715       0.00094815
Si       6.81694775       4.10457601       1.38626275       0.00000000       0.00000000       0.00000000       0.00000000       0.00057006       0.00007753      -0.00031212
Si       6.81707810       4.08571958       6.81707810       0.00000000       0.00000000       0.00000000       0.00000000       0.00070235       0.02374164       0.00069078
Si       6.81686086       9.52948243       1.38623016       0.00000000       0.00000000       0.00000000       0.00000000       0.00059105       0.00043200       0.00009525
Si       6.81750171       9.54922954       6.81755602       0.00000000       0.00000000       0.00000000       0.00000000       0.00033624      -0.02684643      -0.00017203
Si       0.02915361       0.02914275       2.74289396       0.00000000       0.00000000       0.00000000       0.00000000      -0.00091758      -0.00060154       0.00116329
Si       0.03804959       0.03808217       8.16750711       0.00000000       0.00000000       0.00000000       0.00000000       0.00186368       0.00090442      -0.00113286
Si       0.03795183       5.46617116       2.73447591       0.00000000       0.00000000       0.00000000       0.00000000      -0.00047211       0.00269580      -0.00164830
Si       0.02935999       5.45294124       8.18097599       0.00000000       0.00000000       0.00000000       0.00000000       0.00337479       0.00330211      -0.00204617
Si       5.46620374       0.03786493       2.73453022       0.00000000       0.00000000       0.00000000       0.00000000       0.00160996       0.00034485      -0.00258116
Si       5.45291952       0.02941430       8.18096513       0.00000000       0.00000000       0.00000000       0.00000000       0.00396657       0.00219451      -0.00220801
Si       5.45321279       5.45323451       2.74317638       0.00000000       0.00000000       0.00000000       0.00000000       0.00314340       0.00279274      -0.00290744
Si       5.41031875       5.41042737       8.22432623       0.00000000       0.00000000       0.00000000       0.00000000       0.02509599       0.02473886      -0.02326584
Si       1.38609982       1.38608896       4.09805881       0.00000000       0.00000000       0.00000000       0.00000000      -0.00001423       0.00041916      -0.00144392
Si       1.38624103       1.38623016       9.53585842       0.00000000       0.00000000       0.00000000       0.00000000       0.00009600       0.00026981       0.00155110
Si       1.38627361       6.81694775       4.10448911       0.00000000       0.00000000       0.00000000       0.00000000      -0.00007154       0.00019470       0.00159935
Si       1.38624103       6.81684999       9.52956932       0.00000000       0.00000000       0.00000000       0.00000000      -0.00005832       0.00072947      -0.00088279
Si       6.81694775       1.38626275       4.10443480       0.00000000       0.00000000       0.00000000       0.00000000       0.00060095      -0.00032436       0.00268753
Si       6.81686086       1.38624103       9.52962363       0.00000000       0.00000000       0.00000000       0.00000000       0.00076060       0.00009664      -0.00201429
Si       6.81707810       6.81706723       4.08558923       0.00000000       0.00000000       0.00000000       0.00000000       0.00048164       0.00100703       0.02621993
Si       6.81757775       6.81757775       9.54934902       0.00000000       0.00000000       0.00000000       0.00000000      -0.00038805      -0.00043134      -0.02888852
Si       0.02912102       2.74292655       0.02911016       0.00000000       0.00000000       0.00000000       0.00000000      -0.00049603       0.00052222      -0.00039518
Si       0.03782148       2.73448678       5.46618202       0.00000000       0.00000000       0.00000000       0.00000000       0.00231483      -0.00196072       0.00260652
Si       0.03809303       8.16751797       0.03803872       0.00000000       0.00000000       0.00000000       0.00000000       0.00028735      -0.00140984       0.00148299
Si       0.02942516       8.18097599       5.45294124       0.00000000       0.00000000       0.00000000       0.00000000       0.00246814      -0.00235976       0.00313795
Si       5.46620374       2.73446505       0.03778890       0.00000000       0.00000000       0.00000000       0.00000000       0.00173139      -0.00100368       0.00249315
Si       5.45319107       2.74315465       5.45321279       0.00000000       0.00000000       0.00000000       0.00000000       0.00412526      -0.00299998       0.00354927
Si       5.45293038       8.18096513       0.02933826       0.00000000       0.00000000       0.00000000       0.00000000       0.00372412      -0.00240852       0.00303880
Si       5.41024272       8.22435882       5.41047082       0.00000000       0.00000000       0.00000000       0.00000000       0.02539251      -0.02441114       0.02357083
Si       4.09911242       4.09909070       4.09914501       0.00000000       0.00000000       0.00000000       0.00000000      -0.00396422      -0.00395167      -0.00477699
Si       4.06303972       4.06306144       9.57122509       0.00000000       0.00000000       0.00000000       0.00000000      -0.00612079      -0.00614233       0.00732721
Si       4.06296369       9.57129026       4.06311575       0.00000000       0.00000000       0.00000000       0.00000000      -0.00555503       0.00641021      -0.00735348
Si       4.09892777       9.53507636       9.53509808       0.00000000       0.00000000       0.00000000       0.00000000      -0.00419673       0.00434593       0.00367826
Si       9.57131199       4.06307231       4.06313748       0.00000000       0.00000000       0.00000000       0.00000000       0.00643305      -0.00618951      -0.00751139
Si       9.53513067       4.09889518       9.53510894       0.00000000       0.00000000       0.00000000       0.00000000       0.00385862      -0.00341265       0.00393403
Si       9.53513067       9.53515239       4.09893863       0.00000000       0.00000000       0.00000000       0.00000000       0.00428370       0.00341195      -0.00415634
Si       9.57235474       9.57232215       9.57227871       0.00000000       0.00000000       0.00000000       0.00000000       0.00388986       0.00417293       0.00444089
Si       2.74288310       0.02909930       0.02911016       0.00000000       0.00000000       0.00000000       0.00000000       0.00119147      -0.00071302      -0.00024138
Si       2.73450850       0.03788666       5.46617116       0.00000000       0.00000000       0.00000000       0.00000000      -0.00275660       0.00114884       0.00295881
Si       2.73442160       5.46617116       0.03784321       0.00000000       0.00000000       0.00000000       0.00000000      -0.00083013       0.00232736       0.00178959
Si       2.74316551       5.45315848       5.45319107       0.00000000       0.00000000       0.00000000       0.00000000      -0.00370360       0.00357766       0.00301979
Si       8.16748538       0.03806045       0.03799528       0.00000000       0.00000000       0.00000000       0.00000000      -0.00036079       0.00063806       0.00235837
Si       8.18100857       0.02935999       5.45294124       0.00000000       0.00000000       0.00000000       0.00000000      -0.00357666       0.00281087       0.00381096
Si       8.18098685       5.45295210       0.02933826       0.00000000       0.00000000       0.00000000       0.00000000      -0.00254555       0.00317601       0.00291957
Si       8.22447830       5.41042737       5.41045996       0.00000000       0.00000000       0.00000000       0.00000000      -0.02459709       0.02488894       0.02404520
Si       4.09804795       1.38608896       1.38609982       0.00000000       0.00000000       0.00000000       0.00000000      -0.00140167       0.00012610      -0.00010865
Si       4.10447825       1.38626275       6.81694775       0.00000000       0.00000000       0.00000000       0.00000000       0.00140689       0.00002815       0.00048525
Si       4.10457601       6.81694775       1.38626275       0.00000000       0.00000000       0.00000000       0.00000000      -0.00052099       0.00065611      -0.00020639
Si       4.08550234       6.81701292       6.81704551       0.00000000       0.00000000       0.00000000       0.00000000       0.02565167       0.00076729       0.00080881
Si       9.53586928       1.38624103       1.38624103       0.00000000       0.00000000       0.00000000       0.00000000       0.00117456      -0.00000257      -0.00024929
Si       9.52960191       1.38623016       6.81684999       0.00000000       0.00000000       0.00000000       0.00000000      -0.00116458       0.00018260       0.00082220
Si       9.52949329       6.81684999       1.38624103       0.00000000       0.00000000       0.00000000       0.00000000       0.00088280       0.00065835       0.00003921
Si       9.54943592       6.81756689       6.81757775       0.00000000       0.00000000       0.00000000       0.00000000      -0.02843038      -0.00009744      -0.00053321
Si       2.74317638       2.74319810       2.74320896       0.00000000       0.00000000       0.00000000       0.00000000      -0.00078035      -0.00051034      -0.00117882
Si       2.73462798       2.73459540       8.16788728       0.00000000       0.00000000       0.00000000       0.00000000      -0.00204414      -0.00122838      -0.00236966
Si       2.73448678       8.16788728       2.73459540       0.00000000       0.00000000       0.00000000       0.00000000       0.00019431      -0.00210832      -0.00174332
Si       2.74303517       8.18080220       8.18083478       0.00000000       0.00000000       0.00000000       0.00000000      -0.00359430      -0.00196511      -0.00212144
Si       8.16786555       2.73457367       2.73464971       0.00000000       0.00000000       0.00000000       0.00000000      -0.00152341      -0.00014461      -0.00206233
Si       8.18089995       2.74302431       8.18087823       0.00000000       0.00000000       0.00000000       0.00000000      -0.00329641      -0.00317007      -0.00290886
Si       8.18087823       8.18085651       2.74304603       0.00000000       0.00000000       0.00000000       0.00000000      -0.00251885      -0.00224814      -0.00304700
Si       8.22526036       8.22513002       8.22511916       0.00000000       0.00000000       0.00000000       0.00000000      -0.02931165      -0.02842541      -0.02819262
