65
Lattice="10.862 0.0 0.0 0.0 10.862 0.0 0.0 0.0 10.862" Properties=species:S:1:pos:R:3:initial_magmoms:R:1:momenta:R:3:forces:R:3 energy=-7052.6037618 stress="-0.019918788968512704 1.2663397865504544e-05 1.0810293806029803e-05 1.2663397865504544e-05 -0.019919439957914533 9.854094607944489e-06 1.0810293806029803e-05 9.854094607944489e-06 -0.019919119768496377" free_energy=-7052.6037618 pbc="T T T"
Li       6.81768637       6.81768637       6.81768637       0.00000000       0.00000000       0.00000000       0.00000000       0.00087536       0.00098646       0.00087175
Si       1.38602379       4.09806967       1.38608896       0.00000000       0.00000000       0.00000000       0.00000000       0.00126246      -0.00211716       0.00002014
Si       1.38626275       4.10453256       6.81694775       0.00000000       0.00000000       0.00000000       0.00000000      -0.00027850       0.00046120       0.00066589
Si       1.38616499       9.53584756       1.38623016       0.00000000       0.00000000       0.00000000       0.00000000       0.00068183       0.00189837      -0.00017101
Si       1.38624103       9.52953674       6.81684999       0.00000000       0.00000000       0.00000000       0.00000000       0.00046681       0.00004715       0.00094815
Si       6.81694775       4.10457601       1.38626275       0.00000000       0.00000000       0.00000000       0.00000000       0.00057006       0.00007753      -0.00031212
Si       6.81707810       4.08571958       6.81707810       0.00000000       0.00000000       0.00000000       0.00000000       0.00070235       0.02374164       0.00069078
Si       6.81686086       9.52948243       1.38623016       0.00000000       0.00000000       0.00000000       0.00000000       0.00059105       0.00043200       0.00009525
Si       6.81750171       9.54922954       6.81755602       0.00000000       0.00000000       0.00000000       0.00000000       0.00033624      -0.02684643      -0.00017203
Si       0.02915361       0.02914275       2.74289396       0.00000000       0.00000000       0.00000000       0.00000000      -0.00091758      -0.00060154       0.00116329
Si       0.03804959       0.03808217       8.16750711       0.00000000       0.00000000       0.00000000       0.00000000       0.00186368       0.00090442      -0.00113286
Si       0.03795183       5.46617116       2.73447591       0.00000000       0.00000000       0.00000000       0.00000000      -0.00047211       0.00269580      -0.00164830
Si       0.02935999       5.45294124       8.18097599       0.00000000       0.00000000       0.00000000       0.00000000       0.00337479       0.00330211      -0.00204617
Si       5.46620374       0.03786493       2.73453022       0.00000000       0.00000000       0.00000000       0.00000000       0.00160996       0.00034485      -0.00258116
Si       5.45291952       0.02941430       8.18096513       0.00000000       0.00000000       0.00000000       0.00000000       0.00396657       0.00219451      -0.00220801
Si       5.45321279       5.45323451       2.74317638       0.00000000       0.00000000       0.00000000       0.00000000       0.00314340       0.00279274      -0.00290744
Si       5.41031875       5.41042737       8.22432623       0.00000000       0.00000000       0.00000000       0.00000000       0.02509599       0.02473886      -0.02326584
Si       1.38609982       1.38608896       4.09805881       0.00000000       0.00000000       0.00000000       0.00000000      -0.00001423       0.00041916      -0.00144392
Si       1.38624103       1.38623016       9.53585842       0.00000000       0.00000000       0.00000000       0.00000000       0.00009600       0.00026981       0.00155110
Si       1.38627361       6.81694775       4.10448911       0.00000000       0.00000000       0.00000000       0.00000000      -0.00007154       0.00019470       0.00159935
Si       1.38624103       6.81684999       9.52956932       0.00000000       0.00000000       0.00000000       0.00000000      -0.00005832       0.00072947      -0.00088279
Si       6.81694775       1.38626275       4.10443480       0.00000000       0.00000000       0.00000000       0.00000000       0.00060095      -0.00032436       0.00268753
Si       6.81686086       1.38624103       9.52962363       0.00000000       0.00000000       0.00000000       0.00000000       0.00076060       0.00009664      -0.00201429
Si       6.81707810       6.81706723       4.08558923       0.00000000       0.00000000       0.00000000       0.00000000       0.00048164       0.00100703       0.02621993
Si       6.81757775       6.81757775       9.54934902       0.00000000       0.00000000       0.00000000       0.00000000      -0.00038805      -0.00043134      -0.02888852
Si       0.02912102       2.74292655       0.02911016       0.00000000       0.00000000       0.00000000       0.00000000      -0.00049603       0.00052222      -0.00039518
Si       0.03782148       2.73448678       5.46618202       0.00000000       0.00000000       0.00000000       0.00000000       0.00231483      -0.00196072       0.00260652
Si       0.03809303       8.16751797       0.03803872       0.00000000       0.00000000       0.00000000       0.00000000       0.00028735      -0.00140984       0.00148299
Si       0.02942516       8.18097599       5.45294124       0.00000000       0.00000000       0.00000000       0.00000000       0.00246814      -0.00235976       0.00313795
Si       5.46620374       2.73446505       0.03778890       0.00000000       0.00000000       0.00000000       0.00000000       0.00173139      -0.00100368       0.00249315
Si       5.45319107       2.74315465       5.45321279       0.00000000       0.00000000       0.00000000       0.00000000       0.00412526      -0.00299998       0.00354927
Si       5.45293038       8.18096513       0.02933826       0.00000000       0.00000000       0.00000000       0.00000000       0.00372412      -0.00240852       0.00303880
Si       5.41024272       8.22435882       5.41047082       0.00000000       0.00000000       0.00000000       0.00000000       0.02539251      -0.02441114       0.02357083
Si       4.09911242       4.09909070       4.09914501       0.00000000       0.00000000       0.00000000       0.00000000      -0.00396422      -0.00395167      -0.00477699
Si       4.06303972       4.06306144       9.57122509       0.00000000       0.00000000       0.00000000       0.00000000      -0.00612079      -0.00614233       0.00732721
Si       4.06296369       9.57129026       4.06311575       0.00000000       0.00000000       0.00000000       0.00000000      -0.00555503       0.00641021      -0.00735348
Si       4.09892777       9.53507636       9.53509808       0.00000000       0.00000000       0.00000000       0.00000000      -0.00419673       0.00434593       0.00367826
Si       9.57131199       4.06307231       4.06313748       0.00000000       0.00000000       0.00000000       0.00000000       0.00643305      -0.00618951      -0.00751139
Si       9.53513067       4.09889518       9.53510894       0.00000000       0.00000000       0.00000000       0.00000000       0.00385862      -0.00341265       0.00393403
Si       9.53513067       9.53515239       4.09893863       0.00000000       0.00000000       0.00000000       0.00000000       0.00428370       0.00341195      -0.00415634
Si       9.57235474       9.57232215       9.57227871       0.00000000       0.00000000       0.00000000       0.00000000       0.00388986       0.00417293       0.00444089
Si       2.74288310       0.02909930       0.02911016       0.00000000       0.00000000       0.00000000       0.00000000       0.00119147      -0.00071302      -0.00024138
Si       2.73450850       0.03788666       5.46617116       0.00000000       0.00000000       0.00000000       0.00000000      -0.00275660       0.00114884       0.00295881
Si       2.73442160       5.46617116       0.03784321       0.00000000       0.00000000       0.00000000       0.00000000      -0.00083013       0.00232736       0.00178959
Si       2.74316551       5.45315848       5.45319107       0.00000000       0.00000000       0.00000000       0.00000000      -0.00370360       0.00357766       0.00301979
Si       8.16748538       0.03806045       0.03799528       0.00000000       0.00000000       0.00000000       0.00000000      -0.00036079       0.00063806       0.00235837
Si       8.18100857       0.02935999       5.45294124       0.00000000       0.00000000       0.00000000       0.00000000      -0.00357666       0.00281087       0.00381096
Si       8.18098685       5.45295210       0.02933826       0.00000000       0.00000000       0.00000000       0.00000000      -0.00254555       0.00317601       0.00291957
Si       8.22447830       5.41042737       5.41045996       0.00000000       0.00000000       0.00000000       0.00000000      -0.02459709       0.02488894       0.02404520
Si       4.09804795       1.38608896       1.38609982       0.00000000       0.00000000       0.00000000       0.00000000      -0.00140167       0.00012610      -0.00010865
Si       4.10447825       1.38626275       6.81694775       0.00000000       0.00000000       0.00000000       0.00000000       0.00140689       0.00002815       0.00048525
Si       4.10457601       6.81694775       1.38626275       0.00000000       0.00000000       0.00000000       0.00000000      -0.00052099       0.00065611      -0.00020639
Si       4.08550234       6.81701292       6.81704551       0.00000000       0.00000000       0.00000000       0.00000000       0.02565167       0.00076729       0.00080881
Si       9.53586928       1.38624103       1.38624103       0.00000000       0.00000000       0.00000000       0.00000000       0.00117456      -0.00000257      -0.00024929
Si       9.52960191       1.38623016       6.81684999       0.00000000       0.00000000       0.00000000       0.00000000      -0.00116458       0.00018260       0.00082220
Si       9.52949329       6.81684999       1.38624103       0.00000000       0.00000000       0.00000000       0.00000000       0.00088280       0.00065835       0.00003921
Si       9.54943592       6.81756689       6.81757775       0.00000000       0.00000000       0.00000000       0.00000000      -0.02843038      -0.00009744      -0.00053321
Si       2.74317638       2.74319810       2.74320896       0.00000000       0.00000000       0.00000000       0.00000000      -0.00078035      -0.00051034      -0.00117882
Si       2.73462798       2.73459540       8.16788728       0.00000000       0.00000000       0.00000000       0.00000000      -0.00204414      -0.00122838      -0.00236966
Si       2.73448678       8.16788728       2.73459540       0.00000000       0.00000000       0.00000000       0.00000000       0.00019431      -0.00210832      -0.00174332
Si       2.74303517       8.18080220       8.18083478       0.00000000       0.00000000       0.00000000       0.00000000      -0.00359430      -0.00196511      -0.00212144
Si       8.16786555       2.73457367       2.73464971       0.00000000       0.00000000       0.00000000       0.00000000      -0.00152341      -0.00014461      -0.00206233
Si       8.18089995       2.74302431       8.18087823       0.00000000       0.00000000       0.00000000       0.00000000      -0.00329641      -0.00317007      -0.00290886
Si       8.18087823       8.18085651       2.74304603       0.00000000       0.00000000       0.00000000       0.00000000      -0.00251885      -0.00224814      -0.00304700
Si       8.22526036       8.22513002       8.22511916       0.00000000       0.00000000       0.00000000       0.00000000      -0.02931165      -0.02842541      -0.02819262
65
Lattice="10.862 0.0 0.0 0.0 10.862 0.0 0.0 0.0 10.862" Properties=species:S:1:pos:R:3:initial_magmoms:R:1:momenta:R:3:forces:R:3 energy=-7052.2767038 pbc="T T T"
Li       6.47818281       6.47811299       6.47815607       0.00000000       0.00000000       0.00000000       0.00000000       0.44646177       0.44611775       0.44628062
Si       1.38918299       4.09546380       1.38909846       0.00000000       0.00000000       0.00000000       0.00000000      -0.00705411       0.01287104      -0.00611749
Si       1.38163581       4.10189929       6.81631544       0.00000000       0.00000000       0.00000000       0.00000000      -0.00104225       0.00127115      -0.00520533
Si       1.37849199       9.53455754       1.37849716       0.00000000       0.00000000       0.00000000       0.00000000      -0.01518472       0.00409410      -0.01378892
Si       1.37712966       9.53510842       6.81593520       0.00000000       0.00000000       0.00000000       0.00000000       0.00410431      -0.02078232       0.00548542
Si       6.81636751       4.10197699       1.38150324       0.00000000       0.00000000       0.00000000       0.00000000      -0.00436417       0.00053102      -0.00005288
Si       6.83228512       4.04083851       6.83230425       0.00000000       0.00000000       0.00000000       0.00000000      -0.02187413       0.07958040      -0.02325308
Si       6.81587188       9.53515874       1.37715127       0.00000000       0.00000000       0.00000000       0.00000000       0.00610808      -0.02094536       0.00543122
Si       6.80280836       9.53279448       6.80291311       0.00000000       0.00000000       0.00000000       0.00000000      -0.02042457       0.00964419      -0.02134056
Si       0.03102864       0.03111926       2.74203600       0.00000000       0.00000000       0.00000000       0.00000000       0.00469333       0.00209821      -0.00967872
Si       0.02208165       0.02220875       8.17682441       0.00000000       0.00000000       0.00000000       0.00000000       0.00090119      -0.00072817      -0.01933213
Si       0.03720192       5.46589490       2.72986571       0.00000000       0.00000000       0.00000000       0.00000000      -0.00559978      -0.00802627      -0.00209487
Si       0.02661952       5.45708594       8.17541825       0.00000000       0.00000000       0.00000000       0.00000000      -0.01443684       0.00187202      -0.01130601
Si       5.46603030       0.03724577       2.72996373       0.00000000       0.00000000       0.00000000       0.00000000      -0.01042970      -0.00800076      -0.00156172
Si       5.45705694       0.02676857       8.17556997       0.00000000       0.00000000       0.00000000       0.00000000      -0.00019292      -0.01622589      -0.01176102
Si       5.45684716       5.45661981       2.73483736       0.00000000       0.00000000       0.00000000       0.00000000      -0.02203475      -0.01935580      -0.02060455
Si       5.39547764       5.39537341       8.24907456       0.00000000       0.00000000       0.00000000       0.00000000      -0.02121182      -0.01882922      -0.07745617
Si       1.38919545       1.38900150       4.09552723       0.00000000       0.00000000       0.00000000       0.00000000      -0.00708491      -0.00479064       0.01267753
Si       1.37846472       1.37839662       9.53465204       0.00000000       0.00000000       0.00000000       0.00000000      -0.01524100      -0.01243126       0.00317135
Si       1.38164906       6.81632096       4.10195299       0.00000000       0.00000000       0.00000000       0.00000000      -0.00141787      -0.00594732       0.00107395
Si       1.37709389       6.81588412       9.53519279       0.00000000       0.00000000       0.00000000       0.00000000       0.00414010       0.00489125      -0.02126401
Si       6.81636263       1.38160790       4.10185025       0.00000000       0.00000000       0.00000000       0.00000000      -0.00416965       0.00066791       0.00103577
Si       6.81584990       1.37711994       9.53506250       0.00000000       0.00000000       0.00000000       0.00000000       0.00630159       0.00634086      -0.02030148
Si       6.83223043       6.83245508       4.04078099       0.00000000       0.00000000       0.00000000       0.00000000      -0.02148389      -0.02465754       0.08029714
Si       6.80268340       6.80308286       9.53268387       0.00000000       0.00000000       0.00000000       0.00000000      -0.02122411      -0.02205768       0.01013925
Si       0.03099367       2.74215454       0.03099765       0.00000000       0.00000000       0.00000000       0.00000000       0.00456749      -0.01050587       0.00338040
Si       0.03722362       2.72995841       5.46588066       0.00000000       0.00000000       0.00000000       0.00000000      -0.00603778      -0.00270024      -0.00897520
Si       0.02205787       8.17688538       0.02214477       0.00000000       0.00000000       0.00000000       0.00000000       0.00113404      -0.01973768       0.00045801
Si       0.02664368       8.17548019       5.45708703       0.00000000       0.00000000       0.00000000       0.00000000      -0.01445174      -0.01123806       0.00109709
Si       5.46601095       2.72993093       0.03725371       0.00000000       0.00000000       0.00000000       0.00000000      -0.01002275      -0.00211838      -0.00754250
Si       5.45682633       2.73477098       5.45673142       0.00000000       0.00000000       0.00000000       0.00000000      -0.02188714      -0.02027497      -0.02084547
Si       5.45693951       8.17559560       0.02688548       0.00000000       0.00000000       0.00000000       0.00000000       0.00048898      -0.01186829      -0.01620383
Si       5.39551906       8.24901490       5.39552345       0.00000000       0.00000000       0.00000000       0.00000000      -0.02137519      -0.07642665      -0.02017348
Si       4.10713515       4.10708875       4.10710797       0.00000000       0.00000000       0.00000000       0.00000000       0.00040236      -0.00113951      -0.00041132
Si       4.04695550       4.04700508       9.57568038       0.00000000       0.00000000       0.00000000       0.00000000      -0.02460567      -0.02584113       0.01261369
Si       4.04701429       9.57557624       4.04709487       0.00000000       0.00000000       0.00000000       0.00000000      -0.02528302       0.01370269      -0.02550045
Si       4.10568858       9.54263437       9.54264144       0.00000000       0.00000000       0.00000000       0.00000000      -0.01464403      -0.00359252      -0.00356601
Si       9.57574202       4.04697698       4.04687255       0.00000000       0.00000000       0.00000000       0.00000000       0.01200306      -0.02561795      -0.02497328
Si       9.54254931       4.10595078       9.54255145       0.00000000       0.00000000       0.00000000       0.00000000      -0.00430014      -0.01615733      -0.00435455
Si       9.54262359       9.54256708       4.10581885       0.00000000       0.00000000       0.00000000       0.00000000      -0.00449591      -0.00350490      -0.01536128
Si       9.52664946       9.52669039       9.52667997       0.00000000       0.00000000       0.00000000       0.00000000      -0.03084580      -0.02964151      -0.03032386
Si       2.74192372       0.03115112       0.03115499       0.00000000       0.00000000       0.00000000       0.00000000      -0.00889864       0.00226774       0.00321080
Si       2.72987869       0.03724289       5.46606189       0.00000000       0.00000000       0.00000000       0.00000000      -0.00081844      -0.00799811      -0.00973481
Si       2.72991257       5.46591766       0.03722452       0.00000000       0.00000000       0.00000000       0.00000000      -0.00171658      -0.00840281      -0.00644609
Si       2.73490676       5.45664574       5.45672638       0.00000000       0.00000000       0.00000000       0.00000000      -0.02119794      -0.01971713      -0.02049763
Si       8.17676713       0.02222670       0.02216421       0.00000000       0.00000000       0.00000000       0.00000000      -0.01902491      -0.00064242      -0.00042284
Si       8.17549546       0.02674366       5.45704664       0.00000000       0.00000000       0.00000000       0.00000000      -0.01154256      -0.01630331       0.00077461
Si       8.17538519       5.45718699       0.02651010       0.00000000       0.00000000       0.00000000       0.00000000      -0.01121479       0.00144416      -0.01460836
Si       8.24917405       5.39537553       5.39534887       0.00000000       0.00000000       0.00000000       0.00000000      -0.07909952      -0.01873084      -0.01975978
Si       4.09558074       1.38900839       1.38909542       0.00000000       0.00000000       0.00000000       0.00000000       0.01261243      -0.00490010      -0.00567283
Si       4.10188972       1.38162388       6.81636328       0.00000000       0.00000000       0.00000000       0.00000000       0.00130403       0.00025188      -0.00489688
Si       4.10180712       6.81631665       1.38176917       0.00000000       0.00000000       0.00000000       0.00000000       0.00212887      -0.00592435      -0.00090753
Si       4.04068832       6.83240652       6.83236578       0.00000000       0.00000000       0.00000000       0.00000000       0.08149371      -0.02421188      -0.02283625
Si       9.53475488       1.37837338       1.37836587       0.00000000       0.00000000       0.00000000       0.00000000       0.00214341      -0.01251232      -0.01376062
Si       9.53515443       1.37708894       6.81579837       0.00000000       0.00000000       0.00000000       0.00000000      -0.02114755       0.00643771       0.00579379
Si       9.53509978       6.81586411       1.37705781       0.00000000       0.00000000       0.00000000       0.00000000      -0.02101800       0.00505696       0.00517792
Si       9.53258212       6.80298352       6.80287449       0.00000000       0.00000000       0.00000000       0.00000000       0.01034106      -0.02235976      -0.02137325
Si       2.74831397       2.74825402       2.74827645       0.00000000       0.00000000       0.00000000       0.00000000       0.02388878       0.02284301       0.02340476
Si       2.72527358       2.72537765       8.16360430       0.00000000       0.00000000       0.00000000       0.00000000      -0.01671843      -0.01784522      -0.00086691
Si       2.72529265       8.16355409       2.72542812       0.00000000       0.00000000       0.00000000       0.00000000      -0.01691757      -0.00052802      -0.01696264
Si       2.72465450       8.20188919       8.20199294       0.00000000       0.00000000       0.00000000       0.00000000       0.01205736      -0.01382011      -0.01427022
Si       8.16365883       2.72537093       2.72522129       0.00000000       0.00000000       0.00000000       0.00000000      -0.00124626      -0.01801641      -0.01735643
Si       8.20192304       2.72479065       8.20182701       0.00000000       0.00000000       0.00000000       0.00000000      -0.01406248       0.01139143      -0.01389764
Si       8.20193755       8.20187782       2.72472059       0.00000000       0.00000000       0.00000000       0.00000000      -0.01443596      -0.01361505       0.01177790
Si       8.16234445       8.16244345       8.16243060       0.00000000       0.00000000       0.00000000       0.00000000       0.01420407       0.01529556       0.01433961
65
Lattice="10.862 0.0 0.0 0.0 10.862 0.0 0.0 0.0 10.862" Properties=species:S:1:pos:R:3:initial_magmoms:R:1:momenta:R:3:forces:R:3 energy=-7051.9855868 pbc="T T T"
Li       6.13836124       6.13840016       6.13838022       0.00000000       0.00000000       0.00000000       0.00000000       0.00033057      -0.00005122       0.00032503
Si       1.39364426       4.09561655       1.39367569       0.00000000       0.00000000       0.00000000       0.00000000       0.00735008       0.01444309       0.00509730
Si       1.38377653       4.10173543       6.81579539       0.00000000       0.00000000       0.00000000       0.00000000      -0.01421003      -0.00262729       0.00069719
Si       1.37752685       9.53562003       1.37771072       0.00000000       0.00000000       0.00000000       0.00000000      -0.00386953      -0.01260942      -0.00663958
Si       1.37584124       9.54217405       6.81414026       0.00000000       0.00000000       0.00000000       0.00000000       0.00890785       0.00348918      -0.02059890
Si       6.81598898       4.10170998       1.38373969       0.00000000       0.00000000       0.00000000       0.00000000      -0.00206235      -0.00219263      -0.01572659
Si       6.85970988       4.01917052       6.85970945       0.00000000       0.00000000       0.00000000       0.00000000       0.00668592       0.03467211       0.00585472
Si       6.81411746       9.54219677       1.37601398       0.00000000       0.00000000       0.00000000       0.00000000      -0.02199940       0.00347863       0.00612073
Si       6.80718017       9.54021171       6.80720070       0.00000000       0.00000000       0.00000000       0.00000000       0.00549292      -0.00295649       0.00690359
Si       0.03699508       0.03677292       2.74087103       0.00000000       0.00000000       0.00000000       0.00000000       0.00317928       0.00892124       0.01106131
Si       0.02081143       0.02070325       8.18079376       0.00000000       0.00000000       0.00000000       0.00000000      -0.00748820      -0.00197819      -0.01379682
Si       0.03864419       5.46250506       2.73432076       0.00000000       0.00000000       0.00000000       0.00000000      -0.00876513       0.01870980      -0.00507152
Si       0.03067496       5.46079078       8.17465570       0.00000000       0.00000000       0.00000000       0.00000000       0.01452190      -0.00244387       0.00326436
Si       5.46235228       0.03832732       2.73439234       0.00000000       0.00000000       0.00000000       0.00000000       0.02182415      -0.00408759      -0.00403798
Si       5.46046750       0.03057973       8.17481723       0.00000000       0.00000000       0.00000000       0.00000000       0.00207893       0.01771635       0.00355370
Si       5.46925769       5.46927891       2.73640149       0.00000000       0.00000000       0.00000000       0.00000000      -0.00490343      -0.00904492       0.00202953
Si       5.41694590       5.41664173       8.25727081       0.00000000       0.00000000       0.00000000       0.00000000      -0.00922842      -0.00696484      -0.03412572
Si       1.39363583       1.39375755       4.09570670       0.00000000       0.00000000       0.00000000       0.00000000       0.00773059       0.00214397       0.01389248
Si       1.37747802       1.37772844       9.53561737       0.00000000       0.00000000       0.00000000       0.00000000      -0.00321002      -0.00917327      -0.01121746
Si       1.38381332       6.81567901       4.10184804       0.00000000       0.00000000       0.00000000       0.00000000      -0.01449990       0.00234729      -0.00352994
Si       1.37580938       6.81396567       9.54217602       0.00000000       0.00000000       0.00000000       0.00000000       0.00910145      -0.01846354       0.00488667
Si       6.81600852       1.38389769       4.10169051       0.00000000       0.00000000       0.00000000       0.00000000      -0.00232526      -0.01764367      -0.00376015
Si       6.81411761       1.37613736       9.54210593       0.00000000       0.00000000       0.00000000       0.00000000      -0.02183864       0.00411529       0.00425131
Si       6.85954648       6.85981282       4.01919836       0.00000000       0.00000000       0.00000000       0.00000000       0.00900102       0.00678609       0.03408543
Si       6.80718114       6.80716548       9.54011361       0.00000000       0.00000000       0.00000000       0.00000000       0.00526689       0.00944299      -0.00228555
Si       0.03696691       2.74087710       0.03677184       0.00000000       0.00000000       0.00000000       0.00000000       0.00341810       0.01254323       0.00656255
Si       0.03863037       2.73432931       5.46233409       0.00000000       0.00000000       0.00000000       0.00000000      -0.00888322      -0.00366701       0.02053360
Si       0.02079826       8.18087737       0.02078079       0.00000000       0.00000000       0.00000000       0.00000000      -0.00702334      -0.01423404      -0.00486381
Si       0.03070831       8.17476822       5.46067181       0.00000000       0.00000000       0.00000000       0.00000000       0.01426994       0.00267970      -0.00068820
Si       5.46234622       2.73431916       0.03846040       0.00000000       0.00000000       0.00000000       0.00000000       0.02209650      -0.00389763      -0.00607262
Si       5.46925998       2.73630945       5.46923161       0.00000000       0.00000000       0.00000000       0.00000000      -0.00506078       0.00229744      -0.00656699
Si       5.46048359       8.17478584       0.03074740       0.00000000       0.00000000       0.00000000       0.00000000       0.00208600       0.00224646       0.01556389
Si       5.41678788       8.25726112       5.41674254       0.00000000       0.00000000       0.00000000       0.00000000      -0.00699171      -0.03413425      -0.00573139
Si       4.12365781       4.12342661       4.12353786       0.00000000       0.00000000       0.00000000       0.00000000      -0.02133686      -0.01878449      -0.02011096
Si       4.05369967       4.05360146       9.56719291       0.00000000       0.00000000       0.00000000       0.00000000       0.00418609       0.00638847      -0.01761302
Si       4.05374362       9.56711001       4.05381421       0.00000000       0.00000000       0.00000000       0.00000000       0.00338231      -0.01717146       0.00380325
Si       4.11172535       9.55200114       9.55208516       0.00000000       0.00000000       0.00000000       0.00000000      -0.00365423       0.00517282       0.00560044
Si       9.56724695       4.05357137       4.05347963       0.00000000       0.00000000       0.00000000       0.00000000      -0.01771625       0.00691489       0.00663533
Si       9.55191711       4.11182762       9.55183547       0.00000000       0.00000000       0.00000000       0.00000000       0.00663187      -0.00303436       0.00613599