66
Lattice="11.5352 0.0 0.0 0.0 19.0638 0.0 -5.7676 0.0 9.98977" Properties=species:S:1:pos:R:3:initial_magmoms:R:1:momenta:R:3:forces:R:3 energy=-239256.26878 stress="0.010595866104651627 -5.797825832311634e-07 5.621230882462269e-06 -5.797825832311634e-07 -0.003465258108265114 7.829428626749315e-06 5.621230882462269e-06 7.829428626749315e-06 0.01058898882841569" magmom=1.8628e-13 free_energy=-239256.26878 pbc="T T T"
H        1.74526542      11.98386275       6.62815825       0.00000000       0.00000000       0.00000000       0.00000000       0.02605479       0.00653663       0.04299516
H        1.37063844      12.14305940       5.99720106       0.00000000       0.00000000       0.00000000       0.00000000      -0.02448502       0.04840158      -0.04344024
Au       0.23070400       1.90638000       0.39959080       0.00000000       0.00000000       0.00000000       0.00000000      -0.00245080      -0.22553603       0.00113716
Au       3.11450400       1.90638000       0.39959080       0.00000000       0.00000000       0.00000000       0.00000000       0.00301169      -0.22496644       0.00113026
Au       5.99830400       1.90638000       0.39959080       0.00000000       0.00000000       0.00000000       0.00000000       0.00308365      -0.22322078       0.00029054
Au       8.88210400       1.90638000       0.39959080       0.00000000       0.00000000       0.00000000       0.00000000      -0.00241819      -0.22351354       0.00129775
Au      -1.21119600       1.90638000       2.89703330       0.00000000       0.00000000       0.00000000       0.00000000      -0.00166850      -0.22390401       0.00179887
Au       1.67260400       1.90638000       2.89703330       0.00000000       0.00000000       0.00000000       0.00000000       0.00072291      -0.23245480      -0.00045944
Au       4.55640400       1.90638000       2.89703330       0.00000000       0.00000000       0.00000000       0.00000000       0.00187180      -0.22544339       0.00134554
Au       7.44020400       1.90638000       2.89703330       0.00000000       0.00000000       0.00000000       0.00000000       0.00039490      -0.21759950       0.00020472
Au      -2.65309600       1.90638000       5.39447580       0.00000000       0.00000000       0.00000000       0.00000000       0.00102747      -0.22218087      -0.00232499
Au       0.23070400       1.90638000       5.39447580       0.00000000       0.00000000       0.00000000       0.00000000       0.00098299      -0.23234603       0.00115763
Au       3.11450400       1.90638000       5.39447580       0.00000000       0.00000000       0.00000000       0.00000000      -0.00171594      -0.23448021       0.00172140
Au       5.99830400       1.90638000       5.39447580       0.00000000       0.00000000       0.00000000       0.00000000       0.00022434      -0.22439153      -0.00236346
Au      -4.09499600       1.90638000       7.89191830       0.00000000       0.00000000       0.00000000       0.00000000       0.00057935      -0.22463998      -0.00261687
Au      -1.21119600       1.90638000       7.89191830       0.00000000       0.00000000       0.00000000       0.00000000      -0.00109829      -0.22914070       0.00068245
Au       1.67260400       1.90638000       7.89191830       0.00000000       0.00000000       0.00000000       0.00000000      -0.00066197      -0.23194621      -0.00177030
Au       4.55640400       1.90638000       7.89191830       0.00000000       0.00000000       0.00000000       0.00000000       0.00137666      -0.23103833      -0.00007950
Au       0.23069823       4.26098807       2.06455580       0.00000000       0.00000000       0.00000000       0.00000000      -0.00710208       0.21709262      -0.00207511
Au       3.11449823       4.26098807       2.06455580       0.00000000       0.00000000       0.00000000       0.00000000       0.00357708       0.21171277      -0.00285163
Au       5.99829823       4.26098807       2.06455580       0.00000000       0.00000000       0.00000000       0.00000000       0.00386507       0.22908738       0.00043280
Au       8.88209823       4.26098807       2.06455580       0.00000000       0.00000000       0.00000000       0.00000000      -0.00194905       0.23324968       0.00025820
Au      -1.21120177       4.26098807       4.56199830       0.00000000       0.00000000       0.00000000       0.00000000      -0.01628566       0.22582058      -0.00527734
Au       1.67259823       4.26098807       4.56199830       0.00000000       0.00000000       0.00000000       0.00000000      -0.00293509       0.20918801      -0.00213012
Au       4.55639823       4.26098807       4.56199830       0.00000000       0.00000000       0.00000000       0.00000000       0.01675237       0.22075980      -0.00877442
Au       7.44019823       4.26098807       4.56199830       0.00000000       0.00000000       0.00000000       0.00000000       0.00196238       0.22958468      -0.00227177
Au      -2.65310177       4.26098807       7.05944080       0.00000000       0.00000000       0.00000000       0.00000000      -0.00196700       0.21351578      -0.00405100
Au       0.23069823       4.26098807       7.05944080       0.00000000       0.00000000       0.00000000       0.00000000      -0.00410921       0.21092457       0.00316256
Au       3.11449823       4.26098807       7.05944080       0.00000000       0.00000000       0.00000000       0.00000000       0.00011434       0.20924216       0.00265224
Au       5.99829823       4.26098807       7.05944080       0.00000000       0.00000000       0.00000000       0.00000000       0.00402223       0.21436869       0.00094139
Au      -4.09500177       4.26098807       9.55688330       0.00000000       0.00000000       0.00000000       0.00000000      -0.00302220       0.20696718      -0.00125894
Au      -1.21120177       4.26098807       9.55688330       0.00000000       0.00000000       0.00000000       0.00000000       0.00164777       0.21342444       0.00299178
Au       1.67259823       4.26098807       9.55688330       0.00000000       0.00000000       0.00000000       0.00000000      -0.00283349       0.22642527       0.01665596
Au       4.55639823       4.26098807       9.55688330       0.00000000       0.00000000       0.00000000       0.00000000       0.00065389       0.21905613       0.00558157
Au       1.67221575       6.61651498       1.23162700       0.00000000       0.00000000       0.00000000       0.00000000      -0.00127687       0.00850283      -0.00451747
Au       4.56093050       6.62180337       1.23404316       0.00000000       0.00000000       0.00000000       0.00000000       0.00678505       0.00243488       0.00253301
Au       7.43974685       6.62568899       1.23335721       0.00000000       0.00000000       0.00000000       0.00000000       0.00184786       0.00260461       0.00031252
Au      10.31922430       6.62361345       1.23471794       0.00000000       0.00000000       0.00000000       0.00000000      -0.00502194       0.00081070       0.00247236
Au       0.22797339       6.61635876       3.72466522       0.00000000       0.00000000       0.00000000       0.00000000       0.00004471       0.00865139       0.00235887
Au       3.11504363       6.61444482       3.72395814       0.00000000       0.00000000       0.00000000       0.00000000       0.00017597       0.01220364       0.00603535
Au       5.99874821       6.62423175       3.72921260       0.00000000       0.00000000       0.00000000       0.00000000       0.00141750       0.00364519       0.00084704
Au       8.88081712       6.62552694       3.72935835       0.00000000       0.00000000       0.00000000       0.00000000      -0.00044963       0.00248135      -0.00011381
Au      -1.21789494       6.61787884       6.22897538       0.00000000       0.00000000       0.00000000       0.00000000       0.00452487       0.00750027      -0.00262546
Au       1.67025144       6.60818335       6.22865135       0.00000000       0.00000000       0.00000000       0.00000000       0.00280385       0.01397816      -0.00055204
Au       4.56187936       6.61453624       6.22963464       0.00000000       0.00000000       0.00000000       0.00000000      -0.00429642       0.01164448      -0.00246362
Au       7.44077592       6.62227686       6.22277921       0.00000000       0.00000000       0.00000000       0.00000000       0.00022425       0.00336727      -0.00665388
Au      -2.65332612       6.61600010       8.72422402       0.00000000       0.00000000       0.00000000       0.00000000      -0.00308903       0.01070601      -0.00130317
Au       0.22606790       6.61795256       8.72917610       0.00000000       0.00000000       0.00000000       0.00000000       0.00409705       0.00731599      -0.00314928
Au       3.11737626       6.61665676       8.72940485       0.00000000       0.00000000       0.00000000       0.00000000      -0.00091680       0.00786823      -0.00094833
Au       5.99877595       6.61852971       8.72498360       0.00000000       0.00000000       0.00000000       0.00000000       0.00565317       0.00671916       0.00170725
Au       0.23636463       9.03562261       0.39965005       0.00000000       0.00000000       0.00000000       0.00000000      -0.01513112       0.02777647       0.00018173
Au       3.11722683       9.03084446       0.39446331       0.00000000       0.00000000       0.00000000       0.00000000       0.00140421       0.03877170       0.01872841
Au       5.99849713       9.05637359       0.40217569       0.00000000       0.00000000       0.00000000       0.00000000       0.00252255      -0.00305721       0.00245741
Au       8.88395721       9.05526084       0.40170104       0.00000000       0.00000000       0.00000000       0.00000000       0.00091809      -0.00054136       0.00192870
Au      -1.21276277       9.05499421       2.89548462       0.00000000       0.00000000       0.00000000       0.00000000       0.00040311      -0.00151981      -0.00154000
Au       1.67197952       9.04335556       2.90027690       0.00000000       0.00000000       0.00000000       0.00000000       0.00211591       0.00053206      -0.00607102
Au       4.55594250       9.05030878       2.89645737       0.00000000       0.00000000       0.00000000       0.00000000       0.00237002       0.00147560      -0.00188428
Au       7.43947340       9.05642502       2.89752533       0.00000000       0.00000000       0.00000000       0.00000000      -0.00002542      -0.00090940      -0.00009574
Au      -2.65504732       9.05617692       5.39336856       0.00000000       0.00000000       0.00000000       0.00000000      -0.00053451      -0.00223394      -0.00256812
Au       0.22440780       9.01812890       5.39208432       0.00000000       0.00000000       0.00000000       0.00000000       0.00214834       0.01482960      -0.00445554
Au       3.11741399       9.01175696       5.39341313       0.00000000       0.00000000       0.00000000       0.00000000       0.00212637       0.03069274       0.00168070
Au       5.99893143       9.05032718       5.39616429       0.00000000       0.00000000       0.00000000       0.00000000       0.00100800       0.00343139      -0.00411307
Au      -4.09024816       9.03839018       7.88989928       0.00000000       0.00000000       0.00000000       0.00000000      -0.01298196       0.02272965      -0.00253161
Au      -1.20644189       9.04950585       7.88970743       0.00000000       0.00000000       0.00000000       0.00000000      -0.00302616      -0.00631212       0.00031715
Au       1.67216698       9.01929544       7.89890996       0.00000000       0.00000000       0.00000000       0.00000000       0.00698655       0.01465753       0.00074752
Au       4.55518229       9.04375792       7.89321893       0.00000000       0.00000000       0.00000000       0.00000000       0.00167364       0.00297747      -0.00036153
66
Lattice="11.5352 0.0 0.0 0.0 19.0638 0.0 -5.7676 0.0 9.98977" Properties=species:S:1:pos:R:3:initial_magmoms:R:1:momenta:R:3:forces:R:3 energy=-239256.22954 pbc="T T T"
H        1.88343247      11.68026250       6.55440275       0.00000000       0.00000000       0.00000000       0.00000000       0.04177349       0.09241903       0.07020086
H        1.50678261      11.76353383       5.91059867       0.00000000       0.00000000       0.00000000       0.00000000      -0.04062852       0.12316895      -0.07067888
Au       0.23070400       1.90638000       0.39959080       0.00000000       0.00000000       0.00000000       0.00000000       0.00000000       0.00000000       0.00000000
Au       3.11450400       1.90638000       0.39959080       0.00000000       0.00000000       0.00000000       0.00000000       0.00000000       0.00000000       0.00000000
Au       5.99830400       1.90638000       0.39959080       0.00000000       0.00000000       0.00000000       0.00000000       0.00000000       0.00000000       0.00000000
Au       8.88210400       1.90638000       0.39959080       0.00000000       0.00000000       0.00000000       0.00000000       0.00000000       0.00000000       0.00000000
Au      -1.21119600       1.90638000       2.89703330       0.00000000       0.00000000       0.00000000       0.00000000       0.00000000       0.00000000       0.00000000
Au       1.67260400       1.90638000       2.89703330       0.00000000       0.00000000       0.00000000       0.00000000       0.00000000       0.00000000       0.00000000
Au       4.55640400       1.90638000       2.89703330       0.00000000       0.00000000       0.00000000       0.00000000       0.00000000       0.00000000       0.00000000
Au       7.44020400       1.90638000       2.89703330       0.00000000       0.00000000       0.00000000       0.00000000       0.00000000       0.00000000       0.00000000
Au      -2.65309600       1.90638000       5.39447580       0.00000000       0.00000000       0.00000000       0.00000000       0.00000000       0.00000000       0.00000000
Au       0.23070400       1.90638000       5.39447580       0.00000000       0.00000000       0.00000000       0.00000000       0.00000000       0.00000000       0.00000000
Au       3.11450400       1.90638000       5.39447580       0.00000000       0.00000000       0.00000000       0.00000000       0.00000000       0.00000000       0.00000000
Au       5.99830400       1.90638000       5.39447580       0.00000000       0.00000000       0.00000000       0.00000000       0.00000000       0.00000000       0.00000000
Au      -4.09499600       1.90638000       7.89191830       0.00000000       0.00000000       0.00000000       0.00000000       0.00000000       0.00000000       0.00000000
Au      -1.21119600       1.90638000       7.89191830       0.00000000       0.00000000       0.00000000       0.00000000       0.00000000       0.00000000       0.00000000
Au       1.67260400       1.90638000       7.89191830       0.00000000       0.00000000       0.00000000       0.00000000       0.00000000       0.00000000       0.00000000
Au       4.55640400       1.90638000       7.89191830       0.00000000       0.00000000       0.00000000       0.00000000       0.00000000       0.00000000       0.00000000
Au       0.23069823       4.26098807       2.06455580       0.00000000       0.00000000       0.00000000       0.00000000       0.00000000       0.00000000       0.00000000
Au       3.11449823       4.26098807       2.06455580       0.00000000       0.00000000       0.00000000       0.00000000       0.00000000       0.00000000       0.00000000
Au       5.99829823       4.26098807       2.06455580       0.00000000       0.00000000       0.00000000       0.00000000       0.00000000       0.00000000       0.00000000
Au       8.88209823       4.26098807       2.06455580       0.00000000       0.00000000       0.00000000       0.00000000       0.00000000       0.00000000       0.00000000
Au      -1.21120177       4.26098807       4.56199830       0.00000000       0.00000000       0.00000000       0.00000000       0.00000000       0.00000000       0.00000000
Au       1.67259823       4.26098807       4.56199830       0.00000000       0.00000000       0.00000000       0.00000000       0.00000000       0.00000000       0.00000000
Au       4.55639823       4.26098807       4.56199830       0.00000000       0.00000000       0.00000000       0.00000000       0.00000000       0.00000000       0.00000000
Au       7.44019823       4.26098807       4.56199830       0.00000000       0.00000000       0.00000000       0.00000000       0.00000000       0.00000000       0.00000000
Au      -2.65310177       4.26098807       7.05944080       0.00000000       0.00000000       0.00000000       0.00000000       0.00000000       0.00000000       0.00000000
Au       0.23069823       4.26098807       7.05944080       0.00000000       0.00000000       0.00000000       0.00000000       0.00000000       0.00000000       0.00000000
Au       3.11449823       4.26098807       7.05944080       0.00000000       0.00000000       0.00000000       0.00000000       0.00000000       0.00000000       0.00000000
Au       5.99829823       4.26098807       7.05944080       0.00000000       0.00000000       0.00000000       0.00000000       0.00000000       0.00000000       0.00000000
Au      -4.09500177       4.26098807       9.55688330       0.00000000       0.00000000       0.00000000       0.00000000       0.00000000       0.00000000       0.00000000
Au      -1.21120177       4.26098807       9.55688330       0.00000000       0.00000000       0.00000000       0.00000000       0.00000000       0.00000000       0.00000000
Au       1.67259823       4.26098807       9.55688330       0.00000000       0.00000000       0.00000000       0.00000000       0.00000000       0.00000000       0.00000000
Au       4.55639823       4.26098807       9.55688330       0.00000000       0.00000000       0.00000000       0.00000000       0.00000000       0.00000000       0.00000000
Au       1.67355460       6.61885912       1.23259874       0.00000000       0.00000000       0.00000000       0.00000000      -0.00061139       0.01057581      -0.00900314
Au       4.55977121       6.62020102       1.23307305       0.00000000       0.00000000       0.00000000       0.00000000       0.00203697       0.00951777       0.00258845
Au       7.43937817       6.62471465       1.23285276       0.00000000       0.00000000       0.00000000       0.00000000       0.00179993       0.00234740      -0.00292048
Au      10.32069762       6.62199966       1.23389183       0.00000000       0.00000000       0.00000000       0.00000000      -0.00201331       0.00615328       0.00163905
Au       0.23019646       6.61970611       3.72407020       0.00000000       0.00000000       0.00000000       0.00000000      -0.00032820      -0.00866369      -0.00818511
Au       3.11333103       6.62060939       3.72840498       0.00000000       0.00000000       0.00000000       0.00000000       0.00237756      -0.00833828      -0.01311554
Au       5.99890128       6.62224970       3.72939030       0.00000000       0.00000000       0.00000000       0.00000000      -0.00374285       0.00462278       0.00226410
Au       8.88088750       6.62456674       3.73006941       0.00000000       0.00000000       0.00000000       0.00000000       0.00328701       0.00228935      -0.00006622
Au      -1.21482492       6.61861547       6.22881606       0.00000000       0.00000000       0.00000000       0.00000000      -0.00634907      -0.00300392       0.00475028
Au       1.67186000       6.61889269       6.22801365       0.00000000       0.00000000       0.00000000       0.00000000      -0.00107782      -0.01513991       0.00094431
Au       4.55769440       6.62055150       6.22948931       0.00000000       0.00000000       0.00000000       0.00000000       0.01205962      -0.00797572       0.00480330
Au       7.44106934       6.62072880       6.22410367       0.00000000       0.00000000       0.00000000       0.00000000      -0.00110582       0.00946356      -0.00422590
Au      -2.65580289       6.61719529       8.72574140       0.00000000       0.00000000       0.00000000       0.00000000      -0.00345398       0.01538070       0.00282614
Au       0.22759985       6.61881889       8.72666088       0.00000000       0.00000000       0.00000000       0.00000000      -0.00772481      -0.00291160       0.00369933
Au       3.11938255       6.61980595       8.72783038       0.00000000       0.00000000       0.00000000       0.00000000       0.00748114      -0.00842741       0.00477694
Au       5.99931629       6.62002816       8.72380128       0.00000000       0.00000000       0.00000000       0.00000000       0.00686325       0.00842340       0.00536787
Au       0.23487352       9.04159335       0.39966921       0.00000000       0.00000000       0.00000000       0.00000000      -0.00518490       0.01911838       0.00056506
Au       3.11669100       9.04030100       0.39734259       0.00000000       0.00000000       0.00000000       0.00000000      -0.00522136       0.02295484       0.00657662
Au       5.99694551       9.05403205       0.40432524       0.00000000       0.00000000       0.00000000       0.00000000       0.00149023       0.00244129      -0.00117400
Au       8.88430372       9.05148108       0.40259481       0.00000000       0.00000000       0.00000000       0.00000000       0.00339047       0.01186534       0.00299437
Au      -1.21253897       9.05119331       2.89507971       0.00000000       0.00000000       0.00000000       0.00000000       0.00057876       0.01112878      -0.00449655
Au       1.67219522       9.04988393       2.89726704       0.00000000       0.00000000       0.00000000       0.00000000       0.00200793      -0.00408780       0.00615584
Au       4.55729409       9.04658893       2.89415640       0.00000000       0.00000000       0.00000000       0.00000000       0.00050136       0.01572725       0.00104754
Au       7.44042363       9.05475922       2.89704360       0.00000000       0.00000000       0.00000000       0.00000000       0.00016301      -0.00247667       0.00052871
Au      -2.65727187       9.05409579       5.39388548       0.00000000       0.00000000       0.00000000       0.00000000       0.00096355       0.00268312       0.00015040
Au       0.21974418       9.01765826       5.38934203       0.00000000       0.00000000       0.00000000       0.00000000      -0.00037730      -0.02228389      -0.00397376
Au       3.12657615       9.02314653       5.38979613       0.00000000       0.00000000       0.00000000       0.00000000       0.00121896      -0.03278401      -0.00203623
Au       6.00235462       9.04693333       5.39616643       0.00000000       0.00000000       0.00000000       0.00000000      -0.00102862       0.01649102      -0.00071232
Au      -4.09128836       9.04346908       7.89158800       0.00000000       0.00000000       0.00000000       0.00000000      -0.00758847       0.01767176       0.00331073
Au      -1.21006168       9.04578225       7.89198116       0.00000000       0.00000000       0.00000000       0.00000000       0.00643031       0.00070409      -0.00368552
Au       1.67301004       9.01903507       7.90514939       0.00000000       0.00000000       0.00000000       0.00000000       0.00242200      -0.02452453       0.00325713
Au       4.55851865       9.05064018       7.89548074       0.00000000       0.00000000       0.00000000       0.00000000      -0.00636028      -0.00358764      -0.00758994
66
Lattice="11.5352 0.0 0.0 0.0 19.0638 0.0 -5.7676 0.0 9.98977" Properties=species:S:1:pos:R:3:initial_magmoms:R:1:momenta:R:3:forces:R:3 energy=-239256.1606 pbc="T T T"
H        2.02032284      11.44174537       6.48008947       0.00000000       0.00000000       0.00000000       0.00000000      -0.04348172       0.18304907      -0.07911722
H        1.64277454      11.48727985       5.82557765       0.00000000       0.00000000       0.00000000       0.00000000       0.04683564       0.18114736       0.07746386
Au       0.23070400       1.90638000       0.39959080       0.00000000       0.00000000       0.00000000       0.00000000       0.00000000       0.00000000       0.00000000
Au       3.11450400       1.90638000       0.39959080       0.00000000       0.00000000       0.00000000       0.00000000       0.00000000       0.00000000       0.00000000
Au       5.99830400       1.90638000       0.39959080       0.00000000       0.00000000       0.00000000       0.00000000       0.00000000       0.00000000       0.00000000
Au       8.88210400       1.90638000       0.39959080       0.00000000       0.00000000       0.00000000       0.00000000       0.00000000       0.00000000       0.00000000
Au      -1.21119600       1.90638000       2.89703330       0.00000000       0.00000000       0.00000000       0.00000000       0.00000000       0.00000000       0.00000000
Au       1.67260400       1.90638000       2.89703330       0.00000000       0.00000000       0.00000000       0.00000000       0.00000000       0.00000000       0.00000000
Au       4.55640400       1.90638000       2.89703330       0.00000000       0.00000000       0.00000000       0.00000000       0.00000000       0.00000000       0.00000000
Au       7.44020400       1.90638000       2.89703330       0.00000000       0.00000000       0.00000000       0.00000000       0.00000000       0.00000000       0.00000000
Au      -2.65309600       1.90638000       5.39447580       0.00000000       0.00000000       0.00000000       0.00000000       0.00000000       0.00000000       0.00000000
Au       0.23070400       1.90638000       5.39447580       0.00000000       0.00000000       0.00000000       0.00000000       0.00000000       0.00000000       0.00000000
Au       3.11450400       1.90638000       5.39447580       0.00000000       0.00000000       0.00000000       0.00000000       0.00000000       0.00000000       0.00000000
Au       5.99830400       1.90638000       5.39447580       0.00000000       0.00000000       0.00000000       0.00000000       0.00000000       0.00000000       0.00000000
Au      -4.09499600       1.90638000       7.89191830       0.00000000       0.00000000       0.00000000       0.00000000       0.00000000       0.00000000       0.00000000
Au      -1.21119600       1.90638000       7.89191830       0.00000000       0.00000000       0.00000000       0.00000000       0.00000000       0.00000000       0.00000000
Au       1.67260400       1.90638000       7.89191830       0.00000000       0.00000000       0.00000000       0.00000000       0.00000000       0.00000000       0.00000000
Au       4.55640400       1.90638000       7.89191830       0.00000000       0.00000000       0.00000000       0.00000000       0.00000000       0.00000000       0.00000000
Au       0.23069823       4.26098807       2.06455580       0.00000000       0.00000000       0.00000000       0.00000000       0.00000000       0.00000000       0.00000000
Au       3.11449823       4.26098807       2.06455580       0.00000000       0.00000000       0.00000000       0.00000000       0.00000000       0.00000000       0.00000000
Au       5.99829823       4.26098807       2.06455580       0.00000000       0.00000000       0.00000000       0.00000000       0.00000000       0.00000000       0.00000000
Au       8.88209823       4.26098807       2.06455580       0.00000000       0.00000000       0.00000000       0.00000000       0.00000000       0.00000000       0.00000000
Au      -1.21120177       4.26098807       4.56199830       0.00000000       0.00000000       0.00000000       0.00000000       0.00000000       0.00000000       0.00000000
Au       1.67259823       4.26098807       4.56199830       0.00000000       0.00000000       0.00000000       0.00000000       0.00000000       0.00000000       0.00000000
Au       4.55639823       4.26098807       4.56199830       0.00000000       0.00000000       0.00000000       0.00000000       0.00000000       0.00000000       0.00000000
Au       7.44019823       4.26098807       4.56199830       0.00000000       0.00000000       0.00000000       0.00000000       0.00000000       0.00000000       0.00000000
Au      -2.65310177       4.26098807       7.05944080       0.00000000       0.00000000       0.00000000       0.00000000       0.00000000       0.00000000       0.00000000
Au       0.23069823       4.26098807       7.05944080       0.00000000       0.00000000       0.00000000       0.00000000       0.00000000       0.00000000       0.00000000
Au       3.11449823       4.26098807       7.05944080       0.00000000       0.00000000       0.00000000       0.00000000       0.00000000       0.00000000       0.00000000
Au       5.99829823       4.26098807       7.05944080       0.00000000       0.00000000       0.00000000       0.00000000       0.00000000       0.00000000       0.00000000
Au      -4.09500177       4.26098807       9.55688330       0.00000000       0.00000000       0.00000000       0.00000000       0.00000000       0.00000000       0.00000000
Au      -1.21120177       4.26098807       9.55688330       0.00000000       0.00000000       0.00000000       0.00000000       0.00000000       0.00000000       0.00000000
Au       1.67259823       4.26098807       9.55688330       0.00000000       0.00000000       0.00000000       0.00000000       0.00000000       0.00000000       0.00000000
Au       4.55639823       4.26098807       9.55688330       0.00000000       0.00000000       0.00000000       0.00000000       0.00000000       0.00000000       0.00000000
Au       1.67388429       6.62226041       1.22679289       0.00000000       0.00000000       0.00000000       0.00000000      -0.00204388       0.00432318      -0.00964207
Au       4.56218884       6.62314937       1.23424602       0.00000000       0.00000000       0.00000000       0.00000000       0.00273868       0.00496798       0.00276031