66
Lattice="11.5352 0.0 0.0 0.0 19.0638 0.0 -5.7676 0.0 9.98977" Properties=species:S:1:pos:R:3:move_mask:L:1:initial_magmoms:R:1:momenta:R:3:forces:R:3 energy=-239255.88577 stress="0.008760356757229247 2.672449537967943e-05 -0.00010862322969929583 2.672449537967943e-05 -0.0031208598487121307 1.559760308293721e-05 -0.00010862322969929583 1.559760308293721e-05 0.008619315103040606" magmom=-1.08828e-13 free_energy=-239255.88577 pbc="T T T"
H        1.63451966       9.84998261       4.53187351  T       0.00000000       0.00000000       0.00000000       0.00000000      -0.00077377       0.04359017       0.00740465
H        3.13402776       9.85290297       7.12605095  T       0.00000000       0.00000000       0.00000000       0.00000000      -0.00785300       0.04365654      -0.01085107
Au       0.23070400       1.90638000       0.39959080  F       0.00000000       0.00000000       0.00000000       0.00000000       0.03674071      -0.23917485      -0.02083088
Au       3.11450400       1.90638000       0.39959080  F       0.00000000       0.00000000       0.00000000       0.00000000      -0.01227071      -0.25552718      -0.00920213
Au       5.99830400       1.90638000       0.39959080  F       0.00000000       0.00000000       0.00000000       0.00000000      -0.02419613      -0.28137060      -0.00699924
Au       8.88210400       1.90638000       0.39959080  F       0.00000000       0.00000000       0.00000000       0.00000000      -0.00790589      -0.20686758       0.01379238
Au      -1.21119600       1.90638000       2.89703330  F       0.00000000       0.00000000       0.00000000       0.00000000      -0.01547547      -0.20699983       0.00089967
Au       1.67260400       1.90638000       2.89703330  F       0.00000000       0.00000000       0.00000000       0.00000000       0.00831095      -0.24246986       0.02334007
Au       4.55640400       1.90638000       2.89703330  F       0.00000000       0.00000000       0.00000000       0.00000000       0.01207244      -0.20843579      -0.03504172
Au       7.44020400       1.90638000       2.89703330  F       0.00000000       0.00000000       0.00000000       0.00000000      -0.00009122      -0.29908850       0.00030020
Au      -2.65309600       1.90638000       5.39447580  F       0.00000000       0.00000000       0.00000000       0.00000000      -0.00514436      -0.28130967       0.02420134
Au       0.23070400       1.90638000       5.39447580  F       0.00000000       0.00000000       0.00000000       0.00000000       0.00578115      -0.18481381      -0.03590183
Au       3.11450400       1.90638000       5.39447580  F       0.00000000       0.00000000       0.00000000       0.00000000      -0.02676241      -0.20874142       0.01457174
Au       5.99830400       1.90638000       5.39447580  F       0.00000000       0.00000000       0.00000000       0.00000000       0.03652760      -0.20875176       0.00723053
Au      -4.09499600       1.90638000       7.89191830  F       0.00000000       0.00000000       0.00000000       0.00000000       0.00158003      -0.25562408       0.01521269
Au      -1.21119600       1.90638000       7.89191830  F       0.00000000       0.00000000       0.00000000       0.00000000      -0.02750546      -0.24442009       0.01562953
Au       1.67260400       1.90638000       7.89191830  F       0.00000000       0.00000000       0.00000000       0.00000000       0.03368554      -0.18456899       0.01359106
Au       4.55640400       1.90638000       7.89191830  F       0.00000000       0.00000000       0.00000000       0.00000000      -0.01601356      -0.24353081      -0.01888429
Au       0.23069823       4.26098807       2.06455580  F       0.00000000       0.00000000       0.00000000       0.00000000      -0.01298843       0.20542449      -0.03964303
Au       3.11449823       4.26098807       2.06455580  F       0.00000000       0.00000000       0.00000000       0.00000000      -0.01383700       0.24117937      -0.02001916
Au       5.99829823       4.26098807       2.06455580  F       0.00000000       0.00000000       0.00000000       0.00000000      -0.02328650       0.23978070       0.03707625
Au       8.88209823       4.26098807       2.06455580  F       0.00000000       0.00000000       0.00000000       0.00000000       0.03727987       0.25219008      -0.02218865
Au      -1.21120177       4.26098807       4.56199830  F       0.00000000       0.00000000       0.00000000       0.00000000       0.00422761       0.23214188       0.04927961
Au       1.67259823       4.26098807       4.56199830  F       0.00000000       0.00000000       0.00000000       0.00000000       0.01737470       0.25361943      -0.04211668
Au       4.55639823       4.26098807       4.56199830  F       0.00000000       0.00000000       0.00000000       0.00000000       0.01458002       0.20354201      -0.00832537
Au       7.44019823       4.26098807       4.56199830  F       0.00000000       0.00000000       0.00000000       0.00000000      -0.04409151       0.24021079       0.00079320
Au      -2.65310177       4.26098807       7.05944080  F       0.00000000       0.00000000       0.00000000       0.00000000       0.03210857       0.23942836      -0.05558479
Au       0.23069823       4.26098807       7.05944080  F       0.00000000       0.00000000       0.00000000       0.00000000      -0.06941700       0.20515894       0.03998154
Au       3.11449823       4.26098807       7.05944080  F       0.00000000       0.00000000       0.00000000       0.00000000       0.04755067       0.25251574       0.00688291
Au       5.99829823       4.26098807       7.05944080  F       0.00000000       0.00000000       0.00000000       0.00000000       0.01141339       0.24404255       0.02360774
Au      -4.09500177       4.26098807       9.55688330  F       0.00000000       0.00000000       0.00000000       0.00000000      -0.04434928       0.30489342       0.02503580
Au      -1.21120177       4.26098807       9.55688330  F       0.00000000       0.00000000       0.00000000       0.00000000       0.06489685       0.24022409       0.00069628
Au       1.67259823       4.26098807       9.55688330  F       0.00000000       0.00000000       0.00000000       0.00000000      -0.04192027       0.23053944      -0.02897709
Au       4.55639823       4.26098807       9.55688330  F       0.00000000       0.00000000       0.00000000       0.00000000       0.02931706       0.20616290       0.03108794
Au       1.68420315       6.61847862       1.25928362  T       0.00000000       0.00000000       0.00000000       0.00000000       0.00498951      -0.00677590      -0.00345544
Au       4.54558920       6.59935190       1.22155902  T       0.00000000       0.00000000       0.00000000       0.00000000       0.00213959      -0.00722755       0.00377909
Au       7.43347394       6.61539762       1.23360675  T       0.00000000       0.00000000       0.00000000       0.00000000       0.00703007       0.00487313       0.00172209
Au      10.33371344       6.61311767       1.22610075  T       0.00000000       0.00000000       0.00000000       0.00000000      -0.00678678      -0.01439655       0.00551085
Au       0.23179023       6.62101366       3.72474744  T       0.00000000       0.00000000       0.00000000       0.00000000      -0.00428300       0.00613641       0.00693332
Au       3.10805720       6.63565906       3.75971568  T       0.00000000       0.00000000       0.00000000       0.00000000       0.00107533       0.01124488       0.00355422
Au       6.00743490       6.61248267       3.72445528  T       0.00000000       0.00000000       0.00000000       0.00000000      -0.00109450      -0.01955743       0.00111760
Au       8.87722085       6.61561825       3.73423414  T       0.00000000       0.00000000       0.00000000       0.00000000       0.00328820       0.00356078      -0.00762369
Au      -1.19790805       6.62752795       6.21855127  T       0.00000000       0.00000000       0.00000000       0.00000000       0.01143787      -0.01412579      -0.00652694
Au       1.67564287       6.63783551       6.22605207  T       0.00000000       0.00000000       0.00000000       0.00000000      -0.01116640       0.01461394       0.00549929
Au       4.53016499       6.63571743       6.22024501  T       0.00000000       0.00000000       0.00000000       0.00000000      -0.00198171       0.00798545      -0.00185966
Au       7.44515466       6.59961612       6.24220940  T       0.00000000       0.00000000       0.00000000       0.00000000      -0.00223152      -0.01165152      -0.00125467
Au      -2.65848047       6.59278423       8.72857327  T       0.00000000       0.00000000       0.00000000       0.00000000      -0.00428805      -0.01124558       0.00536323
Au       0.24538473       6.62785836       8.71693318  T       0.00000000       0.00000000       0.00000000       0.00000000       0.00890068      -0.01335450      -0.00390620
Au       3.11995409       6.62045379       8.72530631  T       0.00000000       0.00000000       0.00000000       0.00000000      -0.00316998       0.00474172       0.00436861
Au       5.98396307       6.61932707       8.70475381  T       0.00000000       0.00000000       0.00000000       0.00000000       0.00454668      -0.00797513      -0.00261220
Au       0.24927148       9.02230730       0.39793000  T       0.00000000       0.00000000       0.00000000       0.00000000      -0.00004496      -0.00594467      -0.01135235
Au       3.11672365       9.02683245       0.39196408  T       0.00000000       0.00000000       0.00000000       0.00000000      -0.00170873      -0.01632190      -0.00634513
Au       5.97926831       9.03628355       0.41187007  T       0.00000000       0.00000000       0.00000000       0.00000000       0.01451064      -0.02442081       0.00169599
Au       8.88492149       9.00966453       0.42236255  T       0.00000000       0.00000000       0.00000000       0.00000000      -0.00204200      -0.01458263      -0.00148435
Au      -1.22809491       9.01123450       2.88620066  T       0.00000000       0.00000000       0.00000000       0.00000000       0.00153392      -0.01602246       0.00678224
Au       1.67176610       9.10297622       2.82631951  T       0.00000000       0.00000000       0.00000000       0.00000000       0.00744399       0.00048795       0.01939859
Au       4.57832134       8.99546307       2.87711561  T       0.00000000       0.00000000       0.00000000       0.00000000      -0.01504416       0.00321339       0.01451640
Au       7.44050486       9.05094712       2.89675838  T       0.00000000       0.00000000       0.00000000       0.00000000       0.00949470      -0.03289947      -0.00266877
Au      -2.66929544       9.03591760       5.40487410  T       0.00000000       0.00000000       0.00000000       0.00000000       0.00425257      -0.02250361      -0.01009413
Au       0.15852564       9.06418083       5.41690728  T       0.00000000       0.00000000       0.00000000       0.00000000       0.01484109       0.01219163      -0.00837489
Au       3.19300711       9.16010547       5.36047981  T       0.00000000       0.00000000       0.00000000       0.00000000      -0.01869925       0.03934529      -0.00364612
Au       6.03313223       8.99441319       5.38926667  T       0.00000000       0.00000000       0.00000000       0.00000000      -0.02023391       0.00576460       0.00710895
Au      -4.08045483       9.02577229       7.89840292  T       0.00000000       0.00000000       0.00000000       0.00000000       0.00030240      -0.01437182       0.00846454
Au      -1.23121818       9.02490245       7.90616379  T       0.00000000       0.00000000       0.00000000       0.00000000       0.00591648      -0.00818131      -0.00113147
Au       1.62208743       9.06411490       7.94866443  T       0.00000000       0.00000000       0.00000000       0.00000000       0.00681868       0.01200580      -0.00592139
Au       4.62780926       9.10221525       7.93870962  T       0.00000000       0.00000000       0.00000000       0.00000000      -0.01433335      -0.00064455      -0.01393457
