65
Lattice="10.862 0.0 0.0 0.0 10.862 0.0 0.0 0.0 10.862" Properties=species:S:1:pos:R:3:initial_magmoms:R:1:momenta:R:3:forces:R:3 energy=-7051.985416245 pbc="T T T"
Li       6.13836504       6.13836737       6.13836685       0.00000000       0.00000000       0.00000000       0.00000000       0.00015580       0.00015690       0.00015690
Si       1.39351911       4.09558730       1.39351928       0.00000000       0.00000000       0.00000000       0.00000000       0.00144922       0.01507173       0.00143309
Si       1.38363600       4.10158007       6.81588791       0.00000000       0.00000000       0.00000000       0.00000000      -0.01227565      -0.00084486      -0.00096990
Si       1.37804648       9.53536128       1.37804555       0.00000000       0.00000000       0.00000000       0.00000000      -0.00768827      -0.00835831      -0.00768803
Si       1.37582661       9.54247400       6.81377717       0.00000000       0.00000000       0.00000000       0.00000000       0.00664443       0.00041742      -0.01527784
Si       6.81588664       4.10157783       1.38363631       0.00000000       0.00000000       0.00000000       0.00000000      -0.00095982      -0.00083492      -0.01227348
Si       6.85945239       4.01834684       6.85944884       0.00000000       0.00000000       0.00000000       0.00000000       0.00639484       0.04716480       0.00639413
Si       6.81377749       9.54247913       1.37582571       0.00000000       0.00000000       0.00000000       0.00000000      -0.01527446       0.00040380       0.00662202
Si       6.80761546       9.54016351       6.80761294       0.00000000       0.00000000       0.00000000       0.00000000       0.00834910       0.00189486       0.00835357
Si       0.03643491       0.03643526       2.74111054       0.00000000       0.00000000       0.00000000       0.00000000       0.00758389       0.00757820       0.00841417
Si       0.02094024       0.02093763       8.18089854       0.00000000       0.00000000       0.00000000       0.00000000      -0.00130754      -0.00129891      -0.01504943
Si       0.03863615       5.46268113       2.73403062       0.00000000       0.00000000       0.00000000       0.00000000      -0.00656544       0.01537232      -0.00050580
Si       0.03084772       5.46058129       8.17490871       0.00000000       0.00000000       0.00000000       0.00000000       0.01230978       0.00087385       0.00076910
Si       5.46268540       0.03864291       2.73402762       0.00000000       0.00000000       0.00000000       0.00000000       0.01531834      -0.00658365      -0.00050755
Si       5.46057975       0.03084222       8.17491277       0.00000000       0.00000000       0.00000000       0.00000000       0.00088072       0.01234254       0.00076452
Si       5.46883867       5.46883749       2.73636955       0.00000000       0.00000000       0.00000000       0.00000000      -0.00808924      -0.00807866      -0.00236139
Si       5.41704119       5.41703476       8.25810486       0.00000000       0.00000000       0.00000000       0.00000000      -0.00663799      -0.00657949      -0.04683134
Si       1.39351332       1.39351765       4.09558959       0.00000000       0.00000000       0.00000000       0.00000000       0.00144922       0.00143309       0.01507173
Si       1.37804487       1.37804505       9.53535936       0.00000000       0.00000000       0.00000000       0.00000000      -0.00768827      -0.00768803      -0.00835831
Si       1.38363578       6.81588735       4.10158177       0.00000000       0.00000000       0.00000000       0.00000000      -0.01227565      -0.00096990      -0.00084486
Si       1.37582357       6.81377837       9.54247340       0.00000000       0.00000000       0.00000000       0.00000000       0.00664443      -0.01527784       0.00041742
Si       6.81588885       1.38363497       4.10158600       0.00000000       0.00000000       0.00000000       0.00000000      -0.00095982      -0.01227348      -0.00083492
Si       6.81377734       1.37582488       9.54247014       0.00000000       0.00000000       0.00000000       0.00000000      -0.01527446       0.00662202       0.00040380
Si       6.85944974       6.85945283       4.01835654       0.00000000       0.00000000       0.00000000       0.00000000       0.00639484       0.00639413       0.04716480
Si       6.80761500       6.80761267       9.54015499       0.00000000       0.00000000       0.00000000       0.00000000       0.00834910       0.00835357       0.00189486
Si       0.03643862       2.74110975       0.03643604       0.00000000       0.00000000       0.00000000       0.00000000       0.00758389       0.00841417       0.00757820
Si       0.03863887       2.73403047       5.46268222       0.00000000       0.00000000       0.00000000       0.00000000      -0.00656544      -0.00050580       0.01537232
Si       0.02093562       8.18089951       0.02093982       0.00000000       0.00000000       0.00000000       0.00000000      -0.00130754      -0.01504943      -0.00129891
Si       0.03084745       8.17491029       5.46058107       0.00000000       0.00000000       0.00000000       0.00000000       0.01230978       0.00076910       0.00087385
Si       5.46268496       2.73402978       0.03864667       0.00000000       0.00000000       0.00000000       0.00000000       0.01531834      -0.00050755      -0.00658365
Si       5.46884011       2.73637296       5.46883684       0.00000000       0.00000000       0.00000000       0.00000000      -0.00808924      -0.00236139      -0.00807866
Si       5.46058442       8.17491098       0.03084688       0.00000000       0.00000000       0.00000000       0.00000000       0.00088072       0.00076452       0.01234254
Si       5.41704128       8.25810095       5.41703227       0.00000000       0.00000000       0.00000000       0.00000000      -0.00663799      -0.04683134      -0.00657949
Si       4.12254031       4.12254207       4.12253760       0.00000000       0.00000000       0.00000000       0.00000000      -0.01743245      -0.01743092      -0.01743092
Si       4.05406966       4.05406812       9.56749002       0.00000000       0.00000000       0.00000000       0.00000000       0.00161592       0.00163391      -0.01506510
Si       4.05407189       9.56748422       4.05406384       0.00000000       0.00000000       0.00000000       0.00000000       0.00161592      -0.01506510       0.00163391
Si       4.11195381       9.55150874       9.55151211       0.00000000       0.00000000       0.00000000       0.00000000      -0.00582279       0.00541315       0.00541315
Si       9.56747644       4.05407180       4.05406548       0.00000000       0.00000000       0.00000000       0.00000000      -0.01501342       0.00161185       0.00161185
Si       9.55151108       4.11195334       9.55151150       0.00000000       0.00000000       0.00000000       0.00000000       0.00544532      -0.00581559       0.00542235
Si       9.55151101       9.55150734       4.11195073       0.00000000       0.00000000       0.00000000       0.00000000       0.00544532       0.00542235      -0.00581559
Si       9.51842468       9.51843146       9.51843437       0.00000000       0.00000000       0.00000000       0.00000000      -0.02044395      -0.02047794      -0.02047794
Si       2.74110896       0.03643301       0.03643298       0.00000000       0.00000000       0.00000000       0.00000000       0.00839772       0.00758759       0.00758759
Si       2.73403158       0.03864430       5.46268228       0.00000000       0.00000000       0.00000000       0.00000000      -0.00052523      -0.00657745       0.01536166
Si       2.73403466       5.46268322       0.03864399       0.00000000       0.00000000       0.00000000       0.00000000      -0.00052523       0.01536166      -0.00657745
Si       2.73637159       5.46883846       5.46883896       0.00000000       0.00000000       0.00000000       0.00000000      -0.00236503      -0.00808198      -0.00808198
Si       8.18089670       0.02094276       0.02094538       0.00000000       0.00000000       0.00000000       0.00000000      -0.01502924      -0.00131640      -0.00131640
Si       8.17491244       0.03084428       5.46057773       0.00000000       0.00000000       0.00000000       0.00000000       0.00075769       0.01232396       0.00088530
Si       8.17491037       5.46057713       0.03084714       0.00000000       0.00000000       0.00000000       0.00000000       0.00075769       0.00088530       0.01232396
Si       8.25809625       5.41703943       5.41703368       0.00000000       0.00000000       0.00000000       0.00000000      -0.04679155      -0.00657391      -0.00657391
Si       4.09558602       1.39351246       1.39351403       0.00000000       0.00000000       0.00000000       0.00000000       0.01509249       0.00145291       0.00145291
Si       4.10159110       1.38363578       6.81588835       0.00000000       0.00000000       0.00000000       0.00000000      -0.00086853      -0.01227973      -0.00097207
Si       4.10158399       6.81589011       1.38363547       0.00000000       0.00000000       0.00000000       0.00000000      -0.00086853      -0.00097207      -0.01227973
Si       4.01835471       6.85945213       6.85945250       0.00000000       0.00000000       0.00000000       0.00000000       0.04717854       0.00637171       0.00637171
Si       9.53536280       1.37804745       1.37804713       0.00000000       0.00000000       0.00000000       0.00000000      -0.00834742      -0.00769235      -0.00769235
Si       9.54246424       1.37582242       6.81377913       0.00000000       0.00000000       0.00000000       0.00000000       0.00046356       0.00663986      -0.01528554
Si       9.54247229       6.81377774       1.37582322       0.00000000       0.00000000       0.00000000       0.00000000       0.00046356      -0.01528554       0.00663986
Si       9.54015368       6.80761681       6.80761452       0.00000000       0.00000000       0.00000000       0.00000000       0.00191811       0.00834309       0.00834309
Si       2.75798750       2.75798250       2.75798390       0.00000000       0.00000000       0.00000000       0.00000000       0.02100331       0.02104122       0.02104122
Si       2.72496984       2.72496853       8.16450968       0.00000000       0.00000000       0.00000000       0.00000000      -0.00548125      -0.00545975       0.00570993
Si       2.72497391       8.16451222       2.72496706       0.00000000       0.00000000       0.00000000       0.00000000      -0.00548125       0.00570993      -0.00545975
Si       2.70894807       8.22242400       8.22242210       0.00000000       0.00000000       0.00000000       0.00000000       0.01518902      -0.00178810      -0.00178810
Si       8.16450796       2.72496976       2.72496471       0.00000000       0.00000000       0.00000000       0.00000000       0.00573027      -0.00545567      -0.00545567
Si       8.22242482       2.70894621       8.22242526       0.00000000       0.00000000       0.00000000       0.00000000      -0.00180472       0.01522358      -0.00180330
Si       8.22242146       8.22242400       2.70894398       0.00000000       0.00000000       0.00000000       0.00000000      -0.00180472      -0.00180330       0.01522358
Si       8.15390998       8.15391709       8.15391573       0.00000000       0.00000000       0.00000000       0.00000000       0.01711123       0.01707026       0.01707026
