66
Lattice="11.5352 0.0 0.0 0.0 19.0638 0.0 -5.7676 0.0 9.98977" Properties=species:S:1:pos:R:3:move_mask:L:1:initial_magmoms:R:1:momenta:R:3:forces:R:3 energy=-239255.1440277513 pbc="T T T"
H        2.14523532      10.18646386       6.60611723  T       0.00000000       0.00000000       0.00000000       0.00000000       0.00760940       0.01698484       0.00007547
H        1.59286120      10.18577021       5.63786145  T       0.00000000       0.00000000       0.00000000       0.00000000      -0.00130568       0.01852854      -0.00875714
Au       0.23070400       1.90638000       0.39959080  F       0.00000000       0.00000000       0.00000000       0.00000000       0.01044599      -0.23355443      -0.00548219
Au       3.11450400       1.90638000       0.39959080  F       0.00000000       0.00000000       0.00000000       0.00000000      -0.00120962      -0.24174683      -0.00338136
Au       5.99830400       1.90638000       0.39959080  F       0.00000000       0.00000000       0.00000000       0.00000000      -0.00602568      -0.24850367       0.00237370
Au       8.88210400       1.90638000       0.39959080  F       0.00000000       0.00000000       0.00000000       0.00000000       0.00354460      -0.23853369       0.01060274
Au      -1.21119600       1.90638000       2.89703330  F       0.00000000       0.00000000       0.00000000       0.00000000      -0.00716604      -0.23860694      -0.00816316
Au       1.67260400       1.90638000       2.89703330  F       0.00000000       0.00000000       0.00000000       0.00000000       0.00237733      -0.26299032      -0.00346170
Au       4.55640400       1.90638000       2.89703330  F       0.00000000       0.00000000       0.00000000       0.00000000       0.01752925      -0.22592385      -0.00034685
Au       7.44020400       1.90638000       2.89703330  F       0.00000000       0.00000000       0.00000000       0.00000000       0.00066244      -0.28820723       0.00006351
Au      -2.65309600       1.90638000       5.39447580  F       0.00000000       0.00000000       0.00000000       0.00000000      -0.00462801      -0.24881823       0.00408558
Au       0.23070400       1.90638000       5.39447580  F       0.00000000       0.00000000       0.00000000       0.00000000       0.02601105      -0.21971168      -0.02556438
Au       3.11450400       1.90638000       5.39447580  F       0.00000000       0.00000000       0.00000000       0.00000000      -0.02929043      -0.23213611       0.01622343
Au       5.99830400       1.90638000       5.39447580  F       0.00000000       0.00000000       0.00000000       0.00000000       0.00921279      -0.22564682      -0.01486805
Au      -4.09499600       1.90638000       7.89191830  F       0.00000000       0.00000000       0.00000000       0.00000000       0.00269165      -0.24127839       0.00295581
Au      -1.21119600       1.90638000       7.89191830  F       0.00000000       0.00000000       0.00000000       0.00000000      -0.04458920      -0.27074299       0.02579388
Au       1.67260400       1.90638000       7.89191830  F       0.00000000       0.00000000       0.00000000       0.00000000       0.03526420      -0.22044212      -0.00960195
Au       4.55640400       1.90638000       7.89191830  F       0.00000000       0.00000000       0.00000000       0.00000000       0.00441560      -0.26343740       0.00019714
Au       0.23069823       4.26098807       2.06455580  F       0.00000000       0.00000000       0.00000000       0.00000000      -0.00711150       0.21390696       0.01179903
Au       3.11449823       4.26098807       2.06455580  F       0.00000000       0.00000000       0.00000000       0.00000000      -0.00309287       0.25325934       0.05618729
Au       5.99829823       4.26098807       2.06455580  F       0.00000000       0.00000000       0.00000000       0.00000000      -0.05373709       0.21145299      -0.01226712
Au       8.88209823       4.26098807       2.06455580  F       0.00000000       0.00000000       0.00000000       0.00000000       0.06208450       0.22168107      -0.03619388
Au      -1.21120177       4.26098807       4.56199830  F       0.00000000       0.00000000       0.00000000       0.00000000       0.01015017       0.21655316       0.04570941
Au       1.67259823       4.26098807       4.56199830  F       0.00000000       0.00000000       0.00000000       0.00000000       0.02708167       0.26602723       0.00416314
Au       4.55639823       4.26098807       4.56199830  F       0.00000000       0.00000000       0.00000000       0.00000000       0.00288386       0.22831149      -0.00044122
Au       7.44019823       4.26098807       4.56199830  F       0.00000000       0.00000000       0.00000000       0.00000000      -0.01675567       0.21041026       0.05299039
Au      -2.65310177       4.26098807       7.05944080  F       0.00000000       0.00000000       0.00000000       0.00000000       0.05992727       0.24392103      -0.02761984
Au       0.23069823       4.26098807       7.05944080  F       0.00000000       0.00000000       0.00000000       0.00000000      -0.01059493       0.24309332       0.00721316
Au       3.11449823       4.26098807       7.05944080  F       0.00000000       0.00000000       0.00000000       0.00000000       0.00988557       0.26679875      -0.02538183
Au       5.99829823       4.26098807       7.05944080  F       0.00000000       0.00000000       0.00000000       0.00000000      -0.05100413       0.25352947      -0.02606300
Au      -4.09500177       4.26098807       9.55688330  F       0.00000000       0.00000000       0.00000000       0.00000000      -0.01260014       0.14280376       0.00825784
Au      -1.21120177       4.26098807       9.55688330  F       0.00000000       0.00000000       0.00000000       0.00000000       0.05413649       0.24466492      -0.03713969
Au       1.67259823       4.26098807       9.55688330  F       0.00000000       0.00000000       0.00000000       0.00000000      -0.03505824       0.21705927      -0.03051304
Au       4.55639823       4.26098807       9.55688330  F       0.00000000       0.00000000       0.00000000       0.00000000      -0.01285224       0.21395456       0.00114944
Au       1.68272240       6.59525667       1.22704452  T       0.00000000       0.00000000       0.00000000       0.00000000      -0.00143383       0.00598433       0.00042100
Au       4.55989857       6.60433429       1.23398191  T       0.00000000       0.00000000       0.00000000       0.00000000       0.00119651      -0.00015193       0.00206205
Au       7.43501449       6.61746962       1.23776993  T       0.00000000       0.00000000       0.00000000       0.00000000      -0.00083120       0.00574528      -0.00040795
Au      10.32097001       6.61341644       1.23531071  T       0.00000000       0.00000000       0.00000000       0.00000000      -0.00531249      -0.00164008       0.00204846
Au       0.23504502       6.61871249       3.71851757  T       0.00000000       0.00000000       0.00000000       0.00000000      -0.00133325      -0.00837085       0.00093893
Au       3.09706701       6.64808349       3.75632287  T       0.00000000       0.00000000       0.00000000       0.00000000       0.00130431      -0.01177103      -0.00191486
Au       5.98797790       6.60732942       3.73645209  T       0.00000000       0.00000000       0.00000000       0.00000000      -0.00433523       0.00593138       0.00214236
Au       8.87539891       6.61686718       3.73272269  T       0.00000000       0.00000000       0.00000000       0.00000000       0.00138898       0.00848396       0.00101807
Au      -1.18796041       6.63295953       6.22197762  T       0.00000000       0.00000000       0.00000000       0.00000000      -0.00452884      -0.00607117       0.00187521
Au       1.66989015       6.65047525       6.22974217  T       0.00000000       0.00000000       0.00000000       0.00000000      -0.00131431      -0.01619002       0.00088759
Au       4.52492912       6.64859167       6.22979162  T       0.00000000       0.00000000       0.00000000       0.00000000       0.00304112      -0.01107795       0.00029107
Au       7.44168618       6.60408104       6.22417009  T       0.00000000       0.00000000       0.00000000       0.00000000      -0.00221011       0.00067866      -0.00167011
Au      -2.64267268       6.59575326       8.71931749  T       0.00000000       0.00000000       0.00000000       0.00000000      -0.00549643       0.00769965       0.00316549
Au       0.24709430       6.63327931       8.70876463  T       0.00000000       0.00000000       0.00000000       0.00000000      -0.00332981      -0.00787939       0.00197850
Au       3.12684796       6.61834487       8.72809666  T       0.00000000       0.00000000       0.00000000       0.00000000      -0.00120123      -0.00780708      -0.00035182
Au       6.00843933       6.59487240       8.71935782  T       0.00000000       0.00000000       0.00000000       0.00000000      -0.00134823       0.00619041       0.00118709
Au       0.25308436       9.03414517       0.38801272  T       0.00000000       0.00000000       0.00000000       0.00000000      -0.00558730      -0.00425069       0.00497288
Au       3.12453975       9.02581705       0.38598813  T       0.00000000       0.00000000       0.00000000       0.00000000      -0.00492450      -0.00282253       0.00378820
Au       5.97745844       9.03576837       0.43686307  T       0.00000000       0.00000000       0.00000000       0.00000000       0.00057595      -0.00055175      -0.00882336
Au       8.90318691       9.04981679       0.44576958  T       0.00000000       0.00000000       0.00000000       0.00000000      -0.00652854      -0.00200732      -0.01168455
Au      -1.23786037       9.04999857       2.85950825  T       0.00000000       0.00000000       0.00000000       0.00000000       0.00650064      -0.00162781       0.01191440
Au       1.66300413       9.03175487       2.84266144  T       0.00000000       0.00000000       0.00000000       0.00000000      -0.00539579       0.00048303       0.00799601
Au       4.55021218       9.03525272       2.89303019  T       0.00000000       0.00000000       0.00000000       0.00000000      -0.00756522      -0.00199314       0.00622772
Au       7.42128478       9.02864196       2.91039640  T       0.00000000       0.00000000       0.00000000       0.00000000       0.00463593      -0.00494931      -0.00381016
Au      -2.69308735       9.03592712       5.39652993  T       0.00000000       0.00000000       0.00000000       0.00000000       0.01028035      -0.00084465       0.00319374
Au       0.13154955       9.06782037       5.30472044  T       0.00000000       0.00000000       0.00000000       0.00000000       0.00613077      -0.01130432       0.00568293
Au       3.17472802       9.15439793       5.35987261  T       0.00000000       0.00000000       0.00000000       0.00000000       0.00550136      -0.01775933      -0.00410933
Au       6.00005482       9.03508836       5.40422808  T       0.00000000       0.00000000       0.00000000       0.00000000      -0.01100674      -0.00247977       0.00310943
Au      -4.07774090       9.02539826       7.89101607  T       0.00000000       0.00000000       0.00000000       0.00000000      -0.00449336      -0.00209639       0.00407186
Au      -1.19994969       9.03126855       7.88721025  T       0.00000000       0.00000000       0.00000000       0.00000000       0.00323294       0.00322479      -0.00301251
Au       1.70236733       9.06812558       8.02769698  T       0.00000000       0.00000000       0.00000000       0.00000000      -0.00380699      -0.01264428      -0.00646739
Au       4.59931006       9.03079330       7.93010467  T       0.00000000       0.00000000       0.00000000       0.00000000      -0.00858366       0.00015812       0.00029074
