67
Lattice="12.3227 0.0 0.0 0.0 20.0 0.0 -6.16154 0.0 10.6715" Properties=species:S:1:pos:R:3:initial_magmoms:R:1:momenta:R:3:forces:R:3 _atst_autoneb_index=5 energy=-11865.4982858343 stress="-0.016346819915161757 -0.0001809902476639609 -0.0008637504378318788 -0.0001809902476639609 -0.01208225787343857 -3.156733536327982e-05 -0.0008637504378318788 -3.156733536327982e-05 -0.007223096989532605" free_energy=-11865.4982858343 pbc="T T T"
C        0.16003644      10.05068167       0.31060662       0.00000000       0.00000000       0.00000000       0.00000000       0.00180240      -0.00034259       0.00123186
C        1.38900619      10.00070325       1.03569159       0.00000000       0.00000000       0.00000000       0.00000000      -0.00034931      -0.00139904      -0.00246650
C        2.62798736       9.99724914       0.33947437       0.00000000       0.00000000       0.00000000       0.00000000       0.00362506       0.00535197       0.00173535
C        3.85714890      10.02256163       1.06612124       0.00000000       0.00000000       0.00000000       0.00000000      -0.00077943       0.01984247       0.00221898
C        5.08716462       9.97997210       0.33836497       0.00000000       0.00000000       0.00000000       0.00000000       0.00002137       0.01943644      -0.00149905
C        6.32254367       9.99891921       1.03779652       0.00000000       0.00000000       0.00000000       0.00000000      -0.00142121       0.00904154       0.00482099
C        7.55322643       9.99314171       0.30844434       0.00000000       0.00000000       0.00000000       0.00000000      -0.00233685      -0.00492108      -0.00222153
C        8.78882557      10.00183271       1.00804956       0.00000000       0.00000000       0.00000000       0.00000000      -0.00276891      -0.00135497       0.00268775
C       10.01757581      10.07274042       0.28077445       0.00000000       0.00000000       0.00000000       0.00000000       0.00087657      -0.00006028      -0.00206801
C       11.24604590      10.02712132       1.00939014       0.00000000       0.00000000       0.00000000       0.00000000      -0.00435547       0.00216514      -0.00072715
C       -1.08309111       9.91865619       2.42847401       0.00000000       0.00000000       0.00000000       0.00000000       0.00218763       0.00689583       0.00129282
C        0.14273652       9.88755660       3.14993850       0.00000000       0.00000000       0.00000000       0.00000000      -0.00534738       0.00194455      -0.00398436
C        1.38210101       9.96653662       2.45955748       0.00000000       0.00000000       0.00000000       0.00000000       0.00024137      -0.00238280      -0.00177479
C        2.60954008      10.05077689       3.20154981       0.00000000       0.00000000       0.00000000       0.00000000      -0.00168218       0.00390079      -0.00127439
C        3.85375464      10.10637337       2.48664307       0.00000000       0.00000000       0.00000000       0.00000000      -0.00297694       0.02102248      -0.00069512
C        5.09372453      10.16485871       3.20324670       0.00000000       0.00000000       0.00000000       0.00000000      -0.00005589       0.02393778       0.00170490
C        6.32595488      10.04902897       2.46592894       0.00000000       0.00000000       0.00000000       0.00000000      -0.00263057       0.01365887      -0.00134676
C        7.56435812       9.98239047       3.15591744       0.00000000       0.00000000       0.00000000       0.00000000      -0.00295460       0.00828717       0.00311015
C        8.78976348       9.94433948       2.43123888       0.00000000       0.00000000       0.00000000       0.00000000       0.00150767       0.00457643      -0.00220756
C       10.01429915       9.88400088       3.14721365       0.00000000       0.00000000       0.00000000       0.00000000      -0.00738197       0.00708716       0.00058041
C       -2.31047078       9.82463500       4.57523612       0.00000000       0.00000000       0.00000000       0.00000000       0.00575769       0.00877138       0.00280988
C       -1.09441465       9.78033905       5.29435321       0.00000000       0.00000000       0.00000000       0.00000000      -0.01080908       0.00747705      -0.00213251
C        0.12097826       9.80813592       4.57095941       0.00000000       0.00000000       0.00000000       0.00000000       0.00114307       0.00512101       0.00081856
C        1.33627348       9.86031676       5.28142435       0.00000000       0.00000000       0.00000000       0.00000000      -0.00190561      -0.00176888      -0.00057793
C        2.54001277      10.06460397       4.60930716       0.00000000       0.00000000       0.00000000       0.00000000      -0.00187843      -0.00431309       0.00088038
C        5.18215002      10.32175594       4.60527167       0.00000000       0.00000000       0.00000000       0.00000000      -0.00364155       0.01492391      -0.00102910
C        6.37978601      10.16348042       5.29666794       0.00000000       0.00000000       0.00000000       0.00000000      -0.00162416       0.00499380       0.00267470
C        7.58359089       9.97492605       4.57790190       0.00000000       0.00000000       0.00000000       0.00000000      -0.00023722       0.00870558       0.00023950
C        8.79626285       9.87403614       5.29746932       0.00000000       0.00000000       0.00000000       0.00000000      -0.00949466       0.01431387       0.00079901
C       -3.52521285       9.88813128       6.72708996       0.00000000       0.00000000       0.00000000       0.00000000       0.00767533       0.00697161       0.00524224
C       -2.30618322       9.83545321       7.44522680       0.00000000       0.00000000       0.00000000       0.00000000      -0.00976377       0.00896902       0.00160132
C       -1.09013352       9.78409938       6.72449212       0.00000000       0.00000000       0.00000000       0.00000000       0.00377197       0.00968194       0.00225184
C        0.13049168       9.81329804       7.44408483       0.00000000       0.00000000       0.00000000       0.00000000      -0.00656009       0.00632719       0.00174046
C        1.34803208       9.85732568       6.73061782       0.00000000       0.00000000       0.00000000       0.00000000      -0.00420951      -0.00092602       0.00085785
C        2.56945625      10.03339536       7.39122745       0.00000000       0.00000000       0.00000000       0.00000000       0.00016697      -0.00217192      -0.00069504
C        5.18978404      10.47263387       7.42535053       0.00000000       0.00000000       0.00000000       0.00000000       0.00134145       0.01951715      -0.00181926
C        6.38153549      10.22016407       6.73809289       0.00000000       0.00000000       0.00000000       0.00000000      -0.00225517       0.00032243       0.00381651
C        7.58759028      10.02739304       7.44860237       0.00000000       0.00000000       0.00000000       0.00000000      -0.00326227      -0.00390713       0.00135951
C       -4.75279788      10.05089483       8.86875669       0.00000000       0.00000000       0.00000000       0.00000000       0.00559770      -0.00529715       0.00562782
C       -3.52869320       9.96975197       9.58898601       0.00000000       0.00000000       0.00000000       0.00000000      -0.00140742      -0.00091192       0.00131200
C       -2.30374299       9.88992497       8.87262763       0.00000000       0.00000000       0.00000000       0.00000000       0.00625149       0.00913072       0.00340279
C       -1.07690446       9.90113007       9.58892268       0.00000000       0.00000000       0.00000000       0.00000000      -0.00237121       0.01697936       0.00477719
C        0.15118513       9.88440237       8.86518184       0.00000000       0.00000000       0.00000000       0.00000000      -0.00045076       0.00731308      -0.00089815
C        1.39178733       9.97794555       9.55189649       0.00000000       0.00000000       0.00000000       0.00000000      -0.00125011      -0.01077751       0.00278341
C        2.62274031      10.07393737       8.80546458       0.00000000       0.00000000       0.00000000       0.00000000      -0.00042653      -0.01285048      -0.00323052
C        3.85876769      10.17988671       9.53189737       0.00000000       0.00000000       0.00000000       0.00000000       0.00038019      -0.00020128      -0.00051473
C        5.10347523      10.28640807       8.82290831       0.00000000       0.00000000       0.00000000       0.00000000       0.00114738       0.01463779       0.00050080
C        6.33091115      10.13813280       9.55843756       0.00000000       0.00000000       0.00000000       0.00000000       0.00078675       0.00606220       0.00089588
C        4.09504413      13.26208499       6.27550899       0.00000000       0.00000000       0.00000000       0.00000000      -0.00158751      -0.00064791      -0.00965901
C        5.27368680      13.76538187       7.08176987       0.00000000       0.00000000       0.00000000       0.00000000       0.00072709      -0.02182831      -0.00159537
C        5.11553271      15.29330909       7.24359066       0.00000000       0.00000000       0.00000000       0.00000000       0.01173618      -0.02249757       0.00798995
C        3.77551084      15.66462767       7.88723066       0.00000000       0.00000000       0.00000000       0.00000000       0.00915916      -0.02088770       0.00226293
C        2.59233036      15.05885801       7.12880749       0.00000000       0.00000000       0.00000000       0.00000000       0.00398563      -0.01087925       0.00083709
C        2.75894076      13.53358203       6.95623844       0.00000000       0.00000000       0.00000000       0.00000000       0.00325678      -0.00787131      -0.00539487
Pt       3.80021735      10.93864315       5.98037609       0.00000000       0.00000000       0.00000000       0.00000000      -0.00861321       0.01307652      -0.00513072
H        1.64760526      15.26446920       7.65165380       0.00000000       0.00000000       0.00000000       0.00000000       0.00365562      -0.00867974       0.00098958
H        4.09458927      13.83108023       5.32797660       0.00000000       0.00000000       0.00000000       0.00000000       0.00850749       0.01197516       0.00021922
H        6.22442892      13.53424727       6.58399703       0.00000000       0.00000000       0.00000000       0.00000000       0.00051073      -0.02645906       0.00035651
H        5.29915080      13.28469197       8.06971806       0.00000000       0.00000000       0.00000000       0.00000000      -0.01320019      -0.03703326      -0.00904041
H        5.94953132      15.69536324       7.83568690       0.00000000       0.00000000       0.00000000       0.00000000       0.01051484      -0.02734939       0.01401098
H        5.18057214      15.76696731       6.24993829       0.00000000       0.00000000       0.00000000       0.00000000       0.02235688      -0.02269407       0.00938295
H        3.66901852      16.75876458       7.92992512       0.00000000       0.00000000       0.00000000       0.00000000       0.01234557      -0.02058527       0.00750767
H        3.75978382      15.31063464       8.93006044       0.00000000       0.00000000       0.00000000       0.00000000       0.00603755      -0.04056846      -0.00459603
H        2.51218972      15.52623164       6.13437547       0.00000000       0.00000000       0.00000000       0.00000000       0.00338082      -0.01207284       0.00041128
H        1.91383233      13.13607390       6.37535756       0.00000000       0.00000000       0.00000000       0.00000000       0.00589758      -0.00565413      -0.00877287
H        2.73522865      13.04966357       7.94334889       0.00000000       0.00000000       0.00000000       0.00000000       0.01232786      -0.02059363      -0.01171345
H        4.22715561      12.21663699       5.09342772       0.00000000       0.00000000       0.00000000       0.00000000      -0.02528872       0.02050281       0.00847756
