66
Lattice="11.187398274830713 0.0 0.0 0.0 18.85089697201803 0.0 -5.593699159015355 0.0 9.688570543437708" Properties=species:S:1:pos:R:3:move_mask:L:1:initial_magmoms:R:1:forces:R:3 energy=-211834.9545645129 stress="0.04772235596979446 0.0006171151513285145 -0.002786375225454794 0.0006171151513285145 0.0062735849419529865 -0.00041171762222483684 -0.002786375225454794 -0.00041171762222483684 0.04414369099549402" free_energy=-211834.9545645129 pbc="T T T"
C        0.60949361       7.62239709       6.62460032  T       0.00000000       0.01773614      -0.00485944       0.01261627
O        1.69343702       8.40315137       5.31265511  T       0.00000000      -0.02674120       0.01216861       0.01706463
Pt       0.37888436      -0.00262205       0.21826239  F       0.00000000       0.02045759      -0.27153568       0.01343287
Pt       3.17364125      -0.00415459       0.21762910  F       0.00000000      -0.00846245      -0.01228738      -0.10488334
Pt       5.97065205      -0.00625030       0.21817898  F       0.00000000      -0.01141287       0.01013929      -0.02103478
Pt       8.76892921      -0.00564604       0.21869584  F       0.00000000       0.06012270      -0.04987285      -0.01822887
Pt      -1.02067585      -0.00395333       2.64038577  F       0.00000000       0.02029716      -0.05374740      -0.04735325
Pt       1.77543444      -0.00482674       2.63965120  F       0.00000000       0.02953202      -0.05068510       0.00990220
Pt       4.57219134      -0.00519988       2.64047253  F       0.00000000       0.05857965      -0.01526684       0.04366527
Pt       7.36973766      -0.00409586       2.64081782  F       0.00000000      -0.01548825      -0.03719958      -0.04217697
Pt       0.37686452      -0.00535483       5.06168094  F       0.00000000       0.05137172       0.06752333       0.07219459
Pt       3.17432589      -0.00634883       5.06197071  F       0.00000000       0.04050395       0.15437985       0.00110010
Pt       5.97188532      -0.00369087       5.06260722  F       0.00000000      -0.03458915       0.07407439      -0.02541606
Pt      -2.41927220      -0.00305980       5.06210875  F       0.00000000      -0.00833325       0.05638357       0.03236135
Pt      -3.81650930      -0.00138603       7.48449973  F       0.00000000       0.03745360      -0.07782900       0.04751748
Pt      -1.02166267      -0.00504593       7.48397360  F       0.00000000       0.00546071       0.12048871      -0.01920772
Pt       1.77577727      -0.00729010       7.48430095  F       0.00000000      -0.04208266       0.06281614      -0.04376654
Pt       4.57420743      -0.00524303       7.48472679  F       0.00000000       0.04969904       0.03879134      -0.05298928
Pt       8.78617245       2.25897038       1.82764280  T       0.00000000      -0.00514789      -0.00598245      -0.00549192
Pt       7.37856130       2.26784595       4.24467579  T       0.00000000      -0.00264952      -0.00049576       0.00930174
Pt       4.60551003       2.25255938       9.08928864  T       0.00000000      -0.00098420       0.00190762       0.00632034
Pt       5.97962747       2.26488195       1.82465838  T       0.00000000       0.00020278       0.00147304      -0.00489234
Pt       3.19295831       2.25663436       1.83876969  T       0.00000000      -0.00365349       0.00114463       0.00411623
Pt       0.40616211       2.25751053       1.82460441  T       0.00000000      -0.00660754      -0.00544460      -0.00440469
Pt       5.98001101       2.28115927       6.65059080  T       0.00000000      -0.00519236       0.01593096      -0.00233835
Pt      -3.79152629       2.27172884       9.07828019  T       0.00000000      -0.00232666      -0.00260705       0.00966887
Pt       4.57387597       2.29411261       4.25526329  T       0.00000000      -0.01019078       0.00748067       0.00888708
Pt      -1.01176097       2.27982470       9.08491407  T       0.00000000      -0.00450377       0.00488721       0.00090010
Pt      -1.00478394       2.26379619       4.26189745  T       0.00000000      -0.00429208      -0.00312298       0.00024231
Pt       1.79014941       2.25980427       9.08605568  T       0.00000000      -0.00721957       0.00081492       0.00341206
Pt       3.18869564       2.28453526       6.66865790  T       0.00000000      -0.00821529       0.00515158      -0.00035204
Pt      -2.40473338       2.29301619       6.66957392  T       0.00000000      -0.00455871      -0.00028957       0.00128428
Pt       1.78791684       2.28143099       4.26097420  T       0.00000000      -0.00615552       0.00783918       0.00056337
Pt       0.38997579       2.29761142       6.67196448  T       0.00000000      -0.00118271      -0.00672248       0.00295922
Pt       6.01726068       4.48707411       8.26858723  T       0.00000000      -0.00621729       0.00684420       0.00429082
Pt      10.20796675       4.46874605       1.00712609  T       0.00000000      -0.00216493      -0.00309409      -0.00774794
Pt       8.78004039       4.48281075       3.44108164  T       0.00000000      -0.00995023       0.00191230       0.00757706
Pt       4.58721362       4.49331556       1.03156746  T       0.00000000      -0.00607920      -0.00601319       0.00787171
Pt       7.39217402       4.48498612       1.02480077  T       0.00000000      -0.00881393       0.00872168      -0.00407496
Pt       5.98000036       4.50580969       3.44623113  T       0.00000000      -0.01356608      -0.00279832       0.00818970
Pt       7.36918900       4.51028894       5.85572115  T       0.00000000      -0.01469017      -0.00811183      -0.00434422
Pt       1.82161422       4.47072484       0.99311433  T       0.00000000      -0.00497860       0.00497174      -0.00514108
Pt       3.17287338       4.53690400       3.46264367  T       0.00000000      -0.00513725      -0.00600335       0.00117242
Pt      -2.35568230       4.56100834       8.24958742  T       0.00000000       0.00321044      -0.00903131       0.01617701
Pt       3.21582669       4.48309113       8.30497377  T       0.00000000      -0.00226996      -0.01448887       0.00480374
Pt       4.54371632       4.58425088       5.84964162  T       0.00000000       0.00398069      -0.02309976       0.00623127
Pt       0.38055676       4.48249202       3.43028370  T       0.00000000      -0.00807823       0.00868821       0.01457024
Pt       0.39098448       4.53088697       8.29170250  T       0.00000000       0.00393929       0.00593771       0.00745220
Pt       1.79450013       4.56104047       5.87805568  T       0.00000000      -0.00899735      -0.00642348       0.00272917
Pt      -0.98191005       4.56139317       5.85379148  T       0.00000000       0.00248689       0.00957587      -0.01062395
Pt      -1.03897686       6.74723411       2.58527358  T       0.00000000      -0.01018820      -0.00405756       0.02029150
Pt       4.57443622       6.77782293       2.67464519  T       0.00000000      -0.01222583       0.00006503       0.00328497
Pt      -2.45967511       6.76096850       5.03821990  T       0.00000000      -0.00390733       0.00046542      -0.00496078
Pt       5.98818745       6.76255509       0.30157331  T       0.00000000       0.00378515      -0.00503780       0.00484136
Pt       0.42313052       6.76976603       0.20356443  T       0.00000000       0.00477451      -0.00219013      -0.00207610
Pt       7.37066802       6.77605633       2.66122778  T       0.00000000      -0.00952470      -0.00125909      -0.00432589
Pt       3.22077575       6.79020349       0.21837704  T       0.00000000      -0.01287498      -0.00108171       0.00728411
Pt       4.66993177       6.79815555       7.55638946  T       0.00000000       0.01558800       0.00180691       0.01032961
Pt       8.82566437       6.77125456       0.29144075  T       0.00000000      -0.01036765       0.00164479       0.00886781
Pt       5.97285982       6.80761074       5.07794391  T       0.00000000       0.01338162      -0.00552734       0.01055359
Pt      -3.78162489       6.80069306       7.48260347  T       0.00000000      -0.01322550       0.00279367       0.00339875
Pt       1.80465235       6.73597679       2.53578784  T       0.00000000      -0.00620251      -0.00155647       0.00283611
Pt       3.23742258       6.98036184       5.22191264  T       0.00000000      -0.02372255      -0.00774635       0.00461956
Pt       1.93633792       6.76149381       7.68536584  T       0.00000000      -0.01876240       0.01303414      -0.00815984
Pt      -1.05027200       6.99594370       7.50175435  T       0.00000000       0.00148741       0.00879132       0.01060168
Pt       0.37121784       6.80723987       4.84006913  T       0.00000000      -0.00531710      -0.01021487      -0.01667845
