66
Lattice="11.535195231870897 0.0 0.0 0.0 19.063792730541298 0.0 -5.767597615935449 0.0 9.98977233478067" Properties=species:S:1:pos:R:3:move_mask:L:1:initial_magmoms:R:1:forces:R:3 energy=-239255.1228688286 free_energy=-239255.1228688286 pbc="T T T"
H        2.18398735      10.16365139       6.62466757  T       0.00000000      -0.01051749       0.01672730      -0.02470195
H        1.73520481      10.21401793       5.57401325  T       0.00000000      -0.02847475      -0.03552617       0.01520261
Au       0.23070967       1.89764806       0.40002045  F       0.00000000       0.01078754      -0.24108995      -0.00554758
Au       3.11466997       1.89618014       0.39952096  F       0.00000000      -0.00036731      -0.25489220      -0.00854892
Au       5.99906861       1.89724772       0.39890160  F       0.00000000      -0.01186452      -0.25775264       0.00494874
Au       8.88234834       1.89839154       0.39922127  F       0.00000000       0.00691223      -0.24580519       0.01622629
Au      -1.21064758       1.89850593       2.89726374  F       0.00000000      -0.00917720      -0.24806389      -0.01133412
Au       1.67258024       1.89783869       2.89715385  F       0.00000000       0.00500864      -0.27789459       0.00309176
Au       4.55675394       1.89669487       2.89692409  F       0.00000000       0.02151760      -0.23891418      -0.00214464
Au       7.44138328       1.89715240       2.89656446  F       0.00000000       0.00100640      -0.29431904       0.00280301
Au      -2.65200483       1.89732397       5.39440713  F       0.00000000      -0.00525260      -0.26115046       0.00337136
Au       0.23107880       1.89848686       5.39442711  F       0.00000000       0.01936600      -0.22999811      -0.02762253
Au       3.11460076       1.89802933       5.39454699  F       0.00000000      -0.03378644      -0.24998150       0.00957655
Au       5.99870525       1.89667580       5.39447706  F       0.00000000       0.01784559      -0.23582650      -0.01494388
Au      -4.09457904       1.89616108       7.89211994  F       0.00000000       0.00363264      -0.25130433       0.00619151
Au      -1.21064181       1.89722865       7.89176031  F       0.00000000      -0.04937731      -0.28440607       0.02954703
Au       1.67297243       1.89841061       7.89180027  F       0.00000000       0.03394965      -0.23513215      -0.00668340
Au       4.55649440       1.89774337       7.89215990  F       0.00000000       0.00885993      -0.27685975       0.00474507
Au       0.23053088       4.24956723       2.06362723  F       0.00000000      -0.01620511       0.23781857       0.01275534
Au       3.11499296       4.24666953       2.06233855  F       0.00000000      -0.00598809       0.28910439       0.04968141
Au       5.99962807       4.24851872       2.06346739  F       0.00000000      -0.05310829       0.24023877      -0.00444285
Au       8.88267132       4.25073012       2.06439644  F       0.00000000       0.05903725       0.24626698      -0.03550828
Au      -1.21182994       4.24903344       4.56142995  F       0.00000000       0.00658863       0.23476751       0.04422838
Au       1.67239568       4.24625013       4.56087052  F       0.00000000       0.03330060       0.28183584      -0.00639002
Au       4.55887065       4.24546851       4.56083056  F       0.00000000       0.01130105       0.25794983       0.01160895
Au       7.44190237       4.24853778       4.56171965  F       0.00000000      -0.02893921       0.24062921       0.04837288
Au      -2.65314681       4.24792774       7.06022165  F       0.00000000       0.06242340       0.26905937      -0.02645212
Au       0.22998872       4.24684111       7.06011176  F       0.00000000      -0.01248607       0.25610908       0.01338070
Au       3.11559279       4.24630732       7.06052134  F       0.00000000       0.01934626       0.29318507      -0.03044869
Au       6.00066047       4.24668860       7.06054132  F       0.00000000      -0.06478795       0.28906627      -0.03504324
Au      -4.09479244       4.24886187       9.55724516  F       0.00000000      -0.00229959       0.17208908       0.01117522
Au      -1.21161077       4.24790868       9.55685556  F       0.00000000       0.04803346       0.26799818      -0.03607469
Au       1.67303011       4.24910970       9.55795444  F       0.00000000      -0.03330459       0.24252657      -0.03480636
Au       4.55731916       4.24960536       9.55778461  F       0.00000000      -0.01379886       0.23565424      -0.00258986
Au       1.68352714       6.58716949       1.22342744  T       0.00000000       0.00155219      -0.00298711       0.00158890
Au       4.56346742       6.59492846       1.22859215  T       0.00000000      -0.00815724      -0.00619077       0.00396642
Au       7.43362010       6.61130426       1.23838213  T       0.00000000       0.00901194       0.00046774      -0.00146597
Au      10.31787454       6.60472725       1.23687367  T       0.00000000      -0.00121556      -0.00490506       0.00108623
Au       0.23367422       6.60537542       3.71500653  T       0.00000000       0.00805193      -0.00973281      -0.00419223
Au       3.09766710       6.62788975       3.74895177  T       0.00000000       0.00249500      -0.01108860      -0.01145089
Au       5.98424012       6.59826462       3.73729371  T       0.00000000       0.01246806      -0.01507184      -0.00686239
Au       8.87291255       6.60789184       3.73508597  T       0.00000000       0.00036196       0.00492520      -0.00120059
Au      -1.18410509       6.61721403       6.22237944  T       0.00000000      -0.00222944       0.00393331       0.00862741
Au       1.67198041       6.62632652       6.22696475  T       0.00000000      -0.00080339       0.00080793       0.01165973
Au       4.52240790       6.64058624       6.22666506  T       0.00000000       0.00772236      -0.01869746       0.00367896
Au       7.44369032       6.59184012       6.22471705  T       0.00000000       0.00749252      -0.00293904       0.00202306
Au      -2.63969101       6.58871366       8.71933303  T       0.00000000      -0.00677397      -0.00426516      -0.00535885
Au       0.25091933       6.61896790       8.71039218  T       0.00000000       0.00521006       0.01301440      -0.01156441
Au       3.12915241       6.60697677       8.72722495  T       0.00000000      -0.00852699       0.00227328      -0.00206982
Au       6.00752391       6.58282295       8.71868369  T       0.00000000       0.00331035       0.00793235      -0.00228574
Au       0.25262078       9.02352220       0.38992079  T       0.00000000       0.00694241       0.00127508      -0.02269020
Au       3.13163248       9.01789839       0.37557548  T       0.00000000      -0.01500823       0.00174095       0.00288990
Au       5.98502451       9.03008015       0.42494494  T       0.00000000       0.01597904      -0.00045452      -0.01407922
Au       8.90781805       9.03991707       0.44165782  T       0.00000000      -0.01136995      -0.00276046      -0.00313281
Au      -1.22743705       9.04123247       2.86740431  T       0.00000000      -0.01380519       0.00411187      -0.00603624
Au       1.66583792       9.02186365       2.83159098  T       0.00000000       0.00908910       0.00208543      -0.00021585
Au       4.56020296       9.02165395       2.87762385  T       0.00000000       0.00390981       0.00625402      -0.00646398
Au       7.42921942       9.01803183       2.90786289  T       0.00000000       0.01381625       0.00202271      -0.00101078
Au      -2.66903654       9.02537139       5.39671477  T       0.00000000      -0.00542822       0.00078212      -0.00782252
Au       0.16501097       9.04191876       5.30644719  T       0.00000000       0.00786038       0.02552099       0.02119827
Au       3.18610167       9.13085136       5.32924385  T       0.00000000      -0.03557493       0.02918019       0.01454481
Au       6.01041348       9.01643047       5.40194941  T       0.00000000       0.02444551       0.00810617      -0.00167422
Au      -4.06980721       9.01156921       7.88481742  T       0.00000000      -0.01826760       0.00184219       0.01334073
Au      -1.18639483       9.02457071       7.87785455  T       0.00000000       0.00727303      -0.00112736       0.00603108
Au       1.71149422       9.06208826       8.00705227  T       0.00000000      -0.02293779      -0.01655195       0.03218105
Au       4.60344841       9.01780307       7.92727395  T       0.00000000       0.01378937      -0.00249491       0.01728803
