67
Lattice="12.322695179431246 0.0 0.0 0.0 19.999992668199706 0.0 -6.161539589702837 0.0 10.671541289381649" Properties=species:S:1:pos:R:3:initial_magmoms:R:1:forces:R:3 atst_endpoint_result=optimized energy=-11865.5576005563 free_energy=-11865.5576005563 pbc="T T T"
C        0.14774233      10.05947465       0.30566491       0.00000000       0.00009433       0.00127710       0.00569587
C        1.37593674      10.01755425       1.03069470       0.00000000       0.01129894      -0.00998418      -0.00153429
C        2.61568741      10.03928156       0.33604981       0.00000000       0.03036040      -0.01650702       0.00638194
C        3.84503029      10.07081725       1.06325375       0.00000000      -0.01245277      -0.00110268      -0.00236531
C        5.07545062      10.04222894       0.33542248       0.00000000       0.00146243      -0.00157657      -0.00604115
C        6.31121186      10.05639529       1.03460029       0.00000000      -0.01803840      -0.01563839      -0.00446077
C        7.54054537      10.02847443       0.30529790       0.00000000       0.02048934      -0.02084911      -0.00867027
C        8.77654062      10.03082592       1.00415149       0.00000000      -0.02702084      -0.00739216       0.00170077
C       10.00467110      10.07466211       0.27621602       0.00000000       0.03205538       0.00575937       0.00966040
C       11.23376551      10.03382288       1.00417930       0.00000000      -0.01812600       0.00875013       0.00254636
C       -1.09564645       9.93501895       2.42348648       0.00000000      -0.00335311       0.01356838      -0.00895791
C        0.12956314       9.88500533       3.14453960       0.00000000      -0.00266057      -0.00565106      -0.03368097
C        1.36886873       9.95895413       2.45286980       0.00000000       0.00331999      -0.00234624       0.03143785
C        2.59587292      10.02612845       3.19630119       0.00000000      -0.00679431       0.01300575      -0.01019244
C        3.84051566      10.12508164       2.48502041       0.00000000       0.01553863       0.00583594      -0.01617161
C        5.08162427      10.19431540       3.19982703       0.00000000       0.00098118      -0.00433328      -0.00049137
C        6.31566150      10.10480928       2.46231144       0.00000000      -0.02307791      -0.01073715      -0.02099736
C        7.55473056      10.04523221       3.15140935       0.00000000      -0.01917856      -0.01145679       0.03277168
C        8.77825091       9.99558667       2.42719820       0.00000000       0.01895529      -0.00470854      -0.01070162
C       10.00210333       9.92520504       3.14264193       0.00000000       0.01062984       0.01745866      -0.00431870
C       -2.32109579       9.87981174       4.57075298       0.00000000      -0.01929849      -0.00245473       0.01772534
C       -1.10767941       9.81171846       5.28988148       0.00000000      -0.01101293       0.00798372       0.00248809
C        0.10565760       9.79955819       4.56469323       0.00000000       0.00698288      -0.00323047       0.02218322
C        1.32101551       9.80856164       5.27442392       0.00000000       0.00124291       0.01315104       0.01900681
C        2.52627482       9.99658896       4.60241190       0.00000000      -0.01548473       0.01332319      -0.00424371
C        5.17196141      10.32893427       4.60276965       0.00000000      -0.02104245       0.00926504      -0.01366608
C        6.37154311      10.19197130       5.29265238       0.00000000      -0.00304089       0.00798210       0.02085945
C        7.57658120      10.03632253       4.57344499       0.00000000       0.00676891       0.00002370      -0.02629697
C        8.78802504       9.94422080       5.29351672       0.00000000       0.00370269      -0.01430768       0.01647886
C       -3.53281068       9.95692834       6.72360770       0.00000000      -0.00562324      -0.01317484      -0.01181233
C       -2.31613582       9.90278377       7.44214218       0.00000000       0.01110135      -0.00611774      -0.02321826
C       -1.10248042       9.82632763       6.72047629       0.00000000      -0.00883621       0.00182664       0.00984558
C        0.11621839       9.82357653       7.44156794       0.00000000       0.00674538       0.00058736      -0.00512890
C        1.33396721       9.80940652       6.72698555       0.00000000       0.00117792       0.01227621      -0.00123678
C        2.55829989       9.95667159       7.38941002       0.00000000      -0.00962922      -0.01055242      -0.00669114
C        5.17209427      10.43106054       7.42101595       0.00000000      -0.01370155      -0.01404326      -0.01481592
C        6.37116518      10.22902924       6.73469233       0.00000000      -0.03244324      -0.00555641       0.00509789
C        7.57968898      10.07047318       7.44633299       0.00000000      -0.01220035      -0.00845932      -0.03276158
C       -4.76373417      10.08631647       8.86579517       0.00000000       0.01757387      -0.00768057      -0.00043777
C       -3.53939218      10.02378924       9.58605052       0.00000000      -0.00376118       0.00690711       0.00324250
C       -2.31464548       9.95616603       8.86927838       0.00000000       0.01336020       0.00946001       0.01077282
C       -1.08894591       9.96229508       9.58602338       0.00000000       0.01481742      -0.00839809      -0.00180809
C        0.13794670       9.91359922       8.86229143       0.00000000       0.00579522      -0.01031530      -0.01281949
C        1.37949643       9.98335487       9.54947992       0.00000000      -0.01935359      -0.00306929      -0.00350604
C        2.61138306      10.03257118       8.80290498       0.00000000       0.00908542       0.00313434      -0.02397922
C        3.84630560      10.15158123       9.52666095       0.00000000      -0.01944047       0.00044681      -0.00162033
C        5.08965277      10.25828237       8.81790822       0.00000000      -0.00362100      -0.00271699      -0.01552844
C        6.31878738      10.14444865       9.55437957       0.00000000      -0.01638947      -0.01278468       0.00544119
C        4.09142519      13.14763374       6.33137927       0.00000000      -0.02828887      -0.01104715       0.00601485
C        5.26327911      13.53612051       7.20375180       0.00000000       0.02291217       0.01234237       0.02011931
C        5.15126935      15.03734649       7.52525303       0.00000000      -0.00281682      -0.00044171       0.00793249
C        3.79930855      15.37232299       8.16447650       0.00000000       0.02406918       0.00108120       0.00809069
C        2.61998254      14.90800940       7.30749213       0.00000000       0.00457532      -0.00757924       0.01880992
C        2.74030756      13.40606089       6.98625328       0.00000000      -0.01023379      -0.02334387       0.01382320
Pt       3.77299445      10.86710196       5.97919120       0.00000000       0.01221298       0.01367330       0.02328424
H        1.66884775      15.08955989       7.82787646       0.00000000       0.00501165       0.00833374      -0.01279501
H        4.14183364      13.77624579       5.42331023       0.00000000       0.01944154       0.01494756      -0.00240361
H        6.21477633      13.31663620       6.70211035       0.00000000       0.01271038      -0.00200553       0.00926631
H        5.25032805      12.95612506       8.13538494       0.00000000      -0.00109118       0.00360901       0.01645505
H        5.97144010      15.33161871       8.19521218       0.00000000       0.00537994      -0.00047240      -0.00646173
H        5.27749696      15.61926489       6.59737546       0.00000000      -0.01103394      -0.00515483       0.01116334
H        3.72702189      16.45258266       8.35010238       0.00000000       0.00001471       0.02499984       0.01163318
H        3.73820818      14.88037344       9.14825578       0.00000000       0.00174713      -0.00585482       0.00652812
H        2.58287251      15.47929738       6.36654152       0.00000000       0.02957471       0.00938156       0.00626624
H        1.90669689      13.09211957       6.33972463       0.00000000       0.02752764       0.01284752       0.00483272
H        2.66242788      12.83207980       7.92160844       0.00000000       0.00968573       0.01245443      -0.02249244
H        4.16119247      12.17168757       5.11329488       0.00000000      -0.00859391       0.01762733      -0.00828438
