67
Lattice="12.322695179431246 0.0 0.0 0.0 19.999992668199706 0.0 -6.161539589702837 0.0 10.671541289381649" Properties=species:S:1:pos:R:3:initial_magmoms:R:1:forces:R:3 atst_endpoint_result=optimized energy=-11865.1152576365 pbc="T T T"
C        0.20652275       9.91812605       0.32771614       0.00000000      -0.02519538       0.02407708      -0.08826028
C        1.43524524       9.90474412       1.06383933       0.00000000      -0.01202045      -0.09367028      -0.03872355
C        2.67311058       9.89772585       0.37173459       0.00000000       0.01957483      -0.08709864       0.01213948
C        3.90063784       9.93680923       1.10517605       0.00000000      -0.02197635       0.07805224      -0.03043506
C        5.12726825       9.87625026       0.37067788       0.00000000       0.04088774      -0.10445249       0.07718971
C        6.36781272       9.88915545       1.06117578       0.00000000      -0.03026727      -0.00139973      -0.08613835
C        7.59584961       9.85478112       0.32589745       0.00000000       0.06574958       0.04703293      -0.06932275
C        8.83760186       9.86834377       1.01442045       0.00000000      -0.04207289      -0.01969689      -0.06728433
C       10.06437420       9.92636511       0.28386703       0.00000000      -0.00137569      -0.03200851      -0.06400610
C       11.29236297       9.88535698       1.01756254       0.00000000       0.01160166       0.02117419      -0.00259216
C       -1.03315960       9.78557724       2.44118518       0.00000000       0.00896239      -0.04935677      -0.01033592
C        0.18518998       9.77880342       3.16850594       0.00000000       0.03880103      -0.01880427       0.03901866
C        1.43069584       9.88210779       2.49119799       0.00000000      -0.03278833       0.01657182      -0.05951875
C        2.65400832       9.99941974       3.24233549       0.00000000      -0.03006329       0.15632627      -0.09626533
C        3.90356351      10.05949140       2.53128708       0.00000000      -0.00250133       0.01626275      -0.10560187
C        5.16483718      10.14303414       3.23041722       0.00000000      -0.05349349      -0.22364105      -0.13905671
C        6.38119402       9.96646990       2.48688290       0.00000000       0.03203284       0.10186706      -0.04805274
C        7.62486184       9.88210885       3.16552795       0.00000000      -0.05694296       0.00040400       0.04102848
C        8.84515806       9.81631944       2.43972581       0.00000000      -0.01052716      -0.04547815       0.05780886
C       10.06409356       9.73392677       3.15693914       0.00000000      -0.03560126       0.01418954      -0.01228751
C       -2.26489783       9.64430171       4.58712103       0.00000000       0.02175651      -0.01621519       0.02266740
C       -1.06151678       9.60158422       5.31568884       0.00000000       0.05538187       0.03190281       0.04039193
C        0.15451216       9.69253932       4.59355982       0.00000000       0.10187041      -0.02329603       0.00152117
C        1.34431766       9.80554152       5.31872422       0.00000000       0.08927928       0.16792946      -0.05265966
C        2.55478620      10.09142639       4.65481880       0.00000000       0.15543841       0.07764978      -0.06196159
C        5.26706796      10.32411740       4.62699632       0.00000000      -0.16095323       0.08257596       0.02788067
C        6.47538356      10.13777566       5.30581068       0.00000000      -0.14258088      -0.24365935      -0.00666637
C        7.65181141       9.88153930       4.58544105       0.00000000      -0.05822318      -0.00335605       0.03762005
C        8.85050135       9.70371053       5.31081711       0.00000000       0.00861551       0.11632150       0.05377722
C       -3.47441672       9.70921369       6.74150745       0.00000000      -0.02049748       0.03472180       0.00614143
C       -2.27096455       9.63199271       7.47015239       0.00000000       0.01662443       0.01798017      -0.01458138
C       -1.06281164       9.58517165       6.74532272       0.00000000       0.09179634       0.05839859       0.01599831
C        0.15151701       9.66096532       7.47248234       0.00000000       0.12830381      -0.00115027      -0.03371066
C        1.34858193       9.81129397       6.75706540       0.00000000       0.09037975      -0.05118948      -0.05933423
C        2.57188599      10.07813197       7.39728750       0.00000000      -0.08490636       0.01751726       0.07877578
C        5.24551885      10.35510247       7.40988923       0.00000000      -0.11382133       0.44381672       0.04026422
C        6.46367678      10.12597020       6.74361769       0.00000000      -0.09633527       0.00176491       0.01116075
C        7.64361563       9.88520715       7.46484978       0.00000000      -0.10798099      -0.01170543       0.00004114
C       -4.70523098       9.89425180       8.88832746       0.00000000      -0.05416736       0.05223583       0.01789567
C       -3.48754640       9.82425735       9.61682451       0.00000000       0.00342592       0.00800460       0.02259014
C       -2.26725118       9.71881976       8.90167020       0.00000000       0.02083237       0.00676871       0.02404122
C       -1.04380194       9.75248182       9.61981707       0.00000000       0.00042041       0.01412195      -0.03448115
C        0.17826426       9.72880179       8.89369326       0.00000000       0.09124992       0.07630842      -0.01266472
C        1.42534726       9.84057154       9.56843672       0.00000000       0.00631769       0.03050666      -0.04312479
C        2.64501028       9.99123578       8.81086255       0.00000000       0.05378162       0.05037106       0.16053660
C        3.89979106      10.04185127       9.52968448       0.00000000      -0.04313282       0.08902830      -0.06580126
C        5.14877976      10.12464961       8.81852865       0.00000000       0.00628218       0.15151873      -0.07420650
C        6.37379737       9.98531864       9.56894575       0.00000000      -0.04329260      -0.01715608      -0.07666560
C        3.85640369      13.47015135       6.33261393       0.00000000      -0.03532027      -0.35449927       0.00150412
C        5.07161901      13.90946988       7.10506095       0.00000000       0.02693687       0.08232544       0.02563774
C        4.97496695      15.43624787       7.34213534       0.00000000       0.03661482       0.01133415       0.01947702
C        3.67352544      15.80899654       8.05413451       0.00000000       0.01201141      -0.04036520      -0.02822031
C        2.45766382      15.28167442       7.28891526       0.00000000      -0.01534488      -0.01502909       0.02531165
C        2.55690775      13.74422972       7.05625780       0.00000000      -0.07793191       0.15587682       0.05500289
Pt       3.85389444      10.86791372       5.98288504       0.00000000      -0.21629745      -0.44671063       0.72025297
H        1.53157985      15.50823395       7.83672659       0.00000000      -0.02860953      -0.05331395      -0.00411921
H        3.82077693      13.94340512       5.33192091       0.00000000       0.10111211      -0.31815579       0.14212481
H        6.00695013      13.67283055       6.57841866       0.00000000      -0.06970302      -0.02932957       0.00008792
H        5.10939934      13.40220224       8.08180384       0.00000000      -0.00928433      -0.04062871      -0.07014161
H        5.84411659      15.76837227       7.92523440       0.00000000       0.05131249       0.01399105       0.02484744
H        5.02537772      15.96074071       6.37341949       0.00000000       0.00362461      -0.03925346       0.01596980
H        3.60586125      16.90208198       8.17758511       0.00000000      -0.01108324      -0.07823685      -0.02824248
H        3.67901764      15.38110752       9.06994586       0.00000000      -0.00274921      -0.01623846      -0.01635674
H        2.38159269      15.80289094       6.31953228       0.00000000       0.01549498      -0.08928420       0.01270300
H        1.67420548      13.40935497       6.49067333       0.00000000       0.12763033      -0.05087697       0.01103836
H        2.53163123      13.24915790       8.03958509       0.00000000       0.04884125      -0.07104189      -0.09396616
H        4.39653336      12.08560804       5.13041783       0.00000000       0.13710417       0.45281500      -0.14158268
