65
Lattice="10.862 0.0 0.0 0.0 10.862 0.0 0.0 0.0 10.862" Properties=species:S:1:pos:R:3:initial_magmoms:R:1:momenta:R:3:forces:R:3 energy=-7052.6037618 stress="-0.019918788968512704 1.2663397865504544e-05 1.0810293806029803e-05 1.2663397865504544e-05 -0.019919439957914533 9.854094607944489e-06 1.0810293806029803e-05 9.854094607944489e-06 -0.019919119768496377" free_energy=-7052.6037618 pbc="T T T"
Li       6.81768637       6.81768637       6.81768637       0.00000000       0.00000000       0.00000000       0.00000000       0.00087536       0.00098646       0.00087175
Si       1.38602379       4.09806967       1.38608896       0.00000000       0.00000000       0.00000000       0.00000000       0.00126246      -0.00211716       0.00002014
Si       1.38626275       4.10453256       6.81694775       0.00000000       0.00000000       0.00000000       0.00000000      -0.00027850       0.00046120       0.00066589
Si       1.38616499       9.53584756       1.38623016       0.00000000       0.00000000       0.00000000       0.00000000       0.00068183       0.00189837      -0.00017101
Si       1.38624103       9.52953674       6.81684999       0.00000000       0.00000000       0.00000000       0.00000000       0.00046681       0.00004715       0.00094815
Si       6.81694775       4.10457601       1.38626275       0.00000000       0.00000000       0.00000000       0.00000000       0.00057006       0.00007753      -0.00031212
Si       6.81707810       4.08571958       6.81707810       0.00000000       0.00000000       0.00000000       0.00000000       0.00070235       0.02374164       0.00069078
Si       6.81686086       9.52948243       1.38623016       0.00000000       0.00000000       0.00000000       0.00000000       0.00059105       0.00043200       0.00009525
Si       6.81750171       9.54922954       6.81755602       0.00000000       0.00000000       0.00000000       0.00000000       0.00033624      -0.02684643      -0.00017203
Si       0.02915361       0.02914275       2.74289396       0.00000000       0.00000000       0.00000000       0.00000000      -0.00091758      -0.00060154       0.00116329
Si       0.03804959       0.03808217       8.16750711       0.00000000       0.00000000       0.00000000       0.00000000       0.00186368       0.00090442      -0.00113286
Si       0.03795183       5.46617116       2.73447591       0.00000000       0.00000000       0.00000000       0.00000000      -0.00047211       0.00269580      -0.00164830
Si       0.02935999       5.45294124       8.18097599       0.00000000       0.00000000       0.00000000       0.00000000       0.00337479       0.00330211      -0.00204617
Si       5.46620374       0.03786493       2.73453022       0.00000000       0.00000000       0.00000000       0.00000000       0.00160996       0.00034485      -0.00258116
Si       5.45291952       0.02941430       8.18096513       0.00000000       0.00000000       0.00000000       0.00000000       0.00396657       0.00219451      -0.00220801
Si       5.45321279       5.45323451       2.74317638       0.00000000       0.00000000       0.00000000       0.00000000       0.00314340       0.00279274      -0.00290744
Si       5.41031875       5.41042737       8.22432623       0.00000000       0.00000000       0.00000000       0.00000000       0.02509599       0.02473886      -0.02326584
Si       1.38609982       1.38608896       4.09805881       0.00000000       0.00000000       0.00000000       0.00000000      -0.00001423       0.00041916      -0.00144392
Si       1.38624103       1.38623016       9.53585842       0.00000000       0.00000000       0.00000000       0.00000000       0.00009600       0.00026981       0.00155110
Si       1.38627361       6.81694775       4.10448911       0.00000000       0.00000000       0.00000000       0.00000000      -0.00007154       0.00019470       0.00159935
Si       1.38624103       6.81684999       9.52956932       0.00000000       0.00000000       0.00000000       0.00000000      -0.00005832       0.00072947      -0.00088279
Si       6.81694775       1.38626275       4.10443480       0.00000000       0.00000000       0.00000000       0.00000000       0.00060095      -0.00032436       0.00268753
Si       6.81686086       1.38624103       9.52962363       0.00000000       0.00000000       0.00000000       0.00000000       0.00076060       0.00009664      -0.00201429
Si       6.81707810       6.81706723       4.08558923       0.00000000       0.00000000       0.00000000       0.00000000       0.00048164       0.00100703       0.02621993
Si       6.81757775       6.81757775       9.54934902       0.00000000       0.00000000       0.00000000       0.00000000      -0.00038805      -0.00043134      -0.02888852
Si       0.02912102       2.74292655       0.02911016       0.00000000       0.00000000       0.00000000       0.00000000      -0.00049603       0.00052222      -0.00039518
Si       0.03782148       2.73448678       5.46618202       0.00000000       0.00000000       0.00000000       0.00000000       0.00231483      -0.00196072       0.00260652
Si       0.03809303       8.16751797       0.03803872       0.00000000       0.00000000       0.00000000       0.00000000       0.00028735      -0.00140984       0.00148299
Si       0.02942516       8.18097599       5.45294124       0.00000000       0.00000000       0.00000000       0.00000000       0.00246814      -0.00235976       0.00313795
Si       5.46620374       2.73446505       0.03778890       0.00000000       0.00000000       0.00000000       0.00000000       0.00173139      -0.00100368       0.00249315
Si       5.45319107       2.74315465       5.45321279       0.00000000       0.00000000       0.00000000       0.00000000       0.00412526      -0.00299998       0.00354927
Si       5.45293038       8.18096513       0.02933826       0.00000000       0.00000000       0.00000000       0.00000000       0.00372412      -0.00240852       0.00303880
Si       5.41024272       8.22435882       5.41047082       0.00000000       0.00000000       0.00000000       0.00000000       0.02539251      -0.02441114       0.02357083
Si       4.09911242       4.09909070       4.09914501       0.00000000       0.00000000       0.00000000       0.00000000      -0.00396422      -0.00395167      -0.00477699
Si       4.06303972       4.06306144       9.57122509       0.00000000       0.00000000       0.00000000       0.00000000      -0.00612079      -0.00614233       0.00732721
Si       4.06296369       9.57129026       4.06311575       0.00000000       0.00000000       0.00000000       0.00000000      -0.00555503       0.00641021      -0.00735348
Si       4.09892777       9.53507636       9.53509808       0.00000000       0.00000000       0.00000000       0.00000000      -0.00419673       0.00434593       0.00367826
Si       9.57131199       4.06307231       4.06313748       0.00000000       0.00000000       0.00000000       0.00000000       0.00643305      -0.00618951      -0.00751139
Si       9.53513067       4.09889518       9.53510894       0.00000000       0.00000000       0.00000000       0.00000000       0.00385862      -0.00341265       0.00393403
Si       9.53513067       9.53515239       4.09893863       0.00000000       0.00000000       0.00000000       0.00000000       0.00428370       0.00341195      -0.00415634
Si       9.57235474       9.57232215       9.57227871       0.00000000       0.00000000       0.00000000       0.00000000       0.00388986       0.00417293       0.00444089
Si       2.74288310       0.02909930       0.02911016       0.00000000       0.00000000       0.00000000       0.00000000       0.00119147      -0.00071302      -0.00024138
Si       2.73450850       0.03788666       5.46617116       0.00000000       0.00000000       0.00000000       0.00000000      -0.00275660       0.00114884       0.00295881
Si       2.73442160       5.46617116       0.03784321       0.00000000       0.00000000       0.00000000       0.00000000      -0.00083013       0.00232736       0.00178959
Si       2.74316551       5.45315848       5.45319107       0.00000000       0.00000000       0.00000000       0.00000000      -0.00370360       0.00357766       0.00301979
Si       8.16748538       0.03806045       0.03799528       0.00000000       0.00000000       0.00000000       0.00000000      -0.00036079       0.00063806       0.00235837
Si       8.18100857       0.02935999       5.45294124       0.00000000       0.00000000       0.00000000       0.00000000      -0.00357666       0.00281087       0.00381096
Si       8.18098685       5.45295210       0.02933826       0.00000000       0.00000000       0.00000000       0.00000000      -0.00254555       0.00317601       0.00291957
Si       8.22447830       5.41042737       5.41045996       0.00000000       0.00000000       0.00000000       0.00000000      -0.02459709       0.02488894       0.02404520
Si       4.09804795       1.38608896       1.38609982       0.00000000       0.00000000       0.00000000       0.00000000      -0.00140167       0.00012610      -0.00010865
Si       4.10447825       1.38626275       6.81694775       0.00000000       0.00000000       0.00000000       0.00000000       0.00140689       0.00002815       0.00048525
Si       4.10457601       6.81694775       1.38626275       0.00000000       0.00000000       0.00000000       0.00000000      -0.00052099       0.00065611      -0.00020639
Si       4.08550234       6.81701292       6.81704551       0.00000000       0.00000000       0.00000000       0.00000000       0.02565167       0.00076729       0.00080881
Si       9.53586928       1.38624103       1.38624103       0.00000000       0.00000000       0.00000000       0.00000000       0.00117456      -0.00000257      -0.00024929
Si       9.52960191       1.38623016       6.81684999       0.00000000       0.00000000       0.00000000       0.00000000      -0.00116458       0.00018260       0.00082220
Si       9.52949329       6.81684999       1.38624103       0.00000000       0.00000000       0.00000000       0.00000000       0.00088280       0.00065835       0.00003921
Si       9.54943592       6.81756689       6.81757775       0.00000000       0.00000000       0.00000000       0.00000000      -0.02843038      -0.00009744      -0.00053321
Si       2.74317638       2.74319810       2.74320896       0.00000000       0.00000000       0.00000000       0.00000000      -0.00078035      -0.00051034      -0.00117882
Si       2.73462798       2.73459540       8.16788728       0.00000000       0.00000000       0.00000000       0.00000000      -0.00204414      -0.00122838      -0.00236966
Si       2.73448678       8.16788728       2.73459540       0.00000000       0.00000000       0.00000000       0.00000000       0.00019431      -0.00210832      -0.00174332
Si       2.74303517       8.18080220       8.18083478       0.00000000       0.00000000       0.00000000       0.00000000      -0.00359430      -0.00196511      -0.00212144
Si       8.16786555       2.73457367       2.73464971       0.00000000       0.00000000       0.00000000       0.00000000      -0.00152341      -0.00014461      -0.00206233
Si       8.18089995       2.74302431       8.18087823       0.00000000       0.00000000       0.00000000       0.00000000      -0.00329641      -0.00317007      -0.00290886
Si       8.18087823       8.18085651       2.74304603       0.00000000       0.00000000       0.00000000       0.00000000      -0.00251885      -0.00224814      -0.00304700
Si       8.22526036       8.22513002       8.22511916       0.00000000       0.00000000       0.00000000       0.00000000      -0.02931165      -0.02842541      -0.02819262
65
Lattice="10.862 0.0 0.0 0.0 10.862 0.0 0.0 0.0 10.862" Properties=species:S:1:pos:R:3:initial_magmoms:R:1:momenta:R:3:forces:R:3 energy=-7052.277576 pbc="T T T"
Li       6.47710960       6.47709104       6.47711137       0.00000000       0.00000000       0.00000000       0.00000000       0.44502618       0.44509855       0.44504991
Si       1.39019428       4.09466902       1.39018058       0.00000000       0.00000000       0.00000000       0.00000000      -0.00379864       0.01039942      -0.00467532
Si       1.38117319       4.10121108       6.81563637       0.00000000       0.00000000       0.00000000       0.00000000      -0.01478711      -0.00277726       0.00029415
Si       1.37519074       9.53476771       1.37530646       0.00000000       0.00000000       0.00000000       0.00000000      -0.01029895      -0.00249179      -0.01129435
Si       1.37574307       9.53439874       6.81661760       0.00000000       0.00000000       0.00000000       0.00000000       0.00981034      -0.01693779      -0.01060743
Si       6.81573635       4.10125281       1.38108889       0.00000000       0.00000000       0.00000000       0.00000000      -0.00017696      -0.00316620      -0.01494306
Si       6.83384496       4.03980148       6.83382413       0.00000000       0.00000000       0.00000000       0.00000000      -0.03523922       0.06328232      -0.03604451
Si       6.81656077       9.53448060       1.37587370       0.00000000       0.00000000       0.00000000       0.00000000      -0.01030253      -0.01758799       0.00860809
Si       6.79727336       9.53110997       6.79735761       0.00000000       0.00000000       0.00000000       0.00000000       0.00092842       0.00203834       0.00052749
Si       0.03211137       0.03200176       2.74080719       0.00000000       0.00000000       0.00000000       0.00000000       0.00129496       0.00352749      -0.00066119
Si       0.01894198       0.01893290       8.17713660       0.00000000       0.00000000       0.00000000       0.00000000      -0.00605651      -0.00387315      -0.01970488
Si       0.03643862       5.46456811       2.72922945       0.00000000       0.00000000       0.00000000       0.00000000      -0.00778460       0.00455794      -0.01099880
Si       0.02532518       5.45716739       8.17432803       0.00000000       0.00000000       0.00000000       0.00000000      -0.00535154      -0.00595543      -0.01179181
Si       5.46456655       0.03630849       2.72936057       0.00000000       0.00000000       0.00000000       0.00000000       0.00404625      -0.00612908      -0.01069378
Si       5.45699058       0.02536147       8.17448481       0.00000000       0.00000000       0.00000000       0.00000000      -0.00538670      -0.00424687      -0.01187273
Si       5.45783195       5.45770637       2.73296729       0.00000000       0.00000000       0.00000000       0.00000000      -0.01491731      -0.01468499       0.00038647
Si       5.39252407       5.39234770       8.24534029       0.00000000       0.00000000       0.00000000       0.00000000      -0.04796860      -0.04543781      -0.04177585
Si       1.39019549       1.39017970       4.09472813       0.00000000       0.00000000       0.00000000       0.00000000      -0.00360047      -0.00562366       0.01042404
Si       1.37513662       1.37528728       9.53480294       0.00000000       0.00000000       0.00000000       0.00000000      -0.01017982      -0.01195220      -0.00189941
Si       1.38115809       6.81560492       4.10125518       0.00000000       0.00000000       0.00000000       0.00000000      -0.01486578       0.00015874      -0.00262116
Si       1.37571525       6.81652011       9.53445264       0.00000000       0.00000000       0.00000000       0.00000000       0.00980448      -0.01016393      -0.01672793
Si       6.81572498       1.38126804       4.10113800       0.00000000       0.00000000       0.00000000       0.00000000       0.00027515      -0.01589043      -0.00286828
Si       6.81654868       1.37592376       9.53437546       0.00000000       0.00000000       0.00000000       0.00000000      -0.01003520       0.00805556      -0.01672046
Si       6.83379882       6.83392960       4.03974397       0.00000000       0.00000000       0.00000000       0.00000000      -0.03461657      -0.03651608       0.06428608
Si       6.79717660       6.79744260       9.53098937       0.00000000       0.00000000       0.00000000       0.00000000       0.00140088       0.00042028       0.00280829
Si       0.03204751       2.74089977       0.03196821       0.00000000       0.00000000       0.00000000       0.00000000       0.00152919      -0.00037547       0.00257779
Si       0.03644078       2.72929500       5.46447796       0.00000000       0.00000000       0.00000000       0.00000000      -0.00765081      -0.01046000       0.00461204
Si       0.01893093       8.17717527       0.01896477       0.00000000       0.00000000       0.00000000       0.00000000      -0.00568941      -0.01951968      -0.00500277
Si       0.02535920       8.17438064       5.45714172       0.00000000       0.00000000       0.00000000       0.00000000      -0.00553884      -0.01153692      -0.00616404
Si       5.46456456       2.72929535       0.03635932       0.00000000       0.00000000       0.00000000       0.00000000       0.00427442      -0.01050466      -0.00664914
Si       5.45779690       2.73291569       5.45774561       0.00000000       0.00000000       0.00000000       0.00000000      -0.01455795       0.00070316      -0.01427212
Si       5.45699214       8.17443305       0.02546763       0.00000000       0.00000000       0.00000000       0.00000000      -0.00621046      -0.01148880      -0.00479003
Si       5.39247887       8.24529242       5.39245632       0.00000000       0.00000000       0.00000000       0.00000000      -0.04684619      -0.04112079      -0.04567717
Si       4.11153242       4.11140694       4.11147216       0.00000000       0.00000000       0.00000000       0.00000000      -0.01487242      -0.01445925      -0.01483023
Si       4.04264370       4.04265842       9.57577173       0.00000000       0.00000000       0.00000000       0.00000000       0.00096293       0.00095025      -0.01476086
Si       4.04270715       9.57568794       4.04279281       0.00000000       0.00000000       0.00000000       0.00000000       0.00029801      -0.01433739       0.00005530
Si       4.10546953       9.54404281       9.54403258       0.00000000       0.00000000       0.00000000       0.00000000      -0.01642762      -0.00732132      -0.00623681
Si       9.57582348       4.04262054       4.04252001       0.00000000       0.00000000       0.00000000       0.00000000      -0.01467979       0.00151211       0.00178264
Si       9.54386433       4.10574358       9.54387636       0.00000000       0.00000000       0.00000000       0.00000000      -0.00520414      -0.01791695      -0.00643909
Si       9.54395016       9.54395570       4.10560251       0.00000000       0.00000000       0.00000000       0.00000000      -0.00564193      -0.00694153      -0.01720346
Si       9.51848929       9.51863224       9.51858369       0.00000000       0.00000000       0.00000000       0.00000000      -0.00146025      -0.00300058      -0.00252446
Si       2.74072367       0.03207093       0.03214976       0.00000000       0.00000000       0.00000000       0.00000000      -0.00115191       0.00316735       0.00204978
Si       2.72930055       0.03630940       5.46465433       0.00000000       0.00000000       0.00000000       0.00000000      -0.01122163      -0.00622335       0.00405386
Si       2.72929862       5.46458142       0.03640124       0.00000000       0.00000000       0.00000000       0.00000000      -0.01125209       0.00405866      -0.00698589
Si       2.73301746       5.45773027       5.45777877       0.00000000       0.00000000       0.00000000       0.00000000      -0.00008971      -0.01469007      -0.01489263
Si       8.17710876       0.01894777       0.01892982       0.00000000       0.00000000       0.00000000       0.00000000      -0.02005571      -0.00384755      -0.00485157
Si       8.17444220       0.02533215       5.45702309       0.00000000       0.00000000       0.00000000       0.00000000      -0.01236560      -0.00394132      -0.00523412
Si       8.17438676       5.45716744       0.02523650       0.00000000       0.00000000       0.00000000       0.00000000      -0.01256702      -0.00526901      -0.00476124
Si       8.24538634       5.39241613       5.39240597       0.00000000       0.00000000       0.00000000       0.00000000      -0.04226719      -0.04638706      -0.04730547
Si       4.09476927       1.39017777       1.39019987       0.00000000       0.00000000       0.00000000       0.00000000       0.01073578      -0.00522191      -0.00459509
Si       4.10118900       1.38126803       6.81569966       0.00000000       0.00000000       0.00000000       0.00000000      -0.00272148      -0.01605172      -0.00017354
Si       4.10111731       6.81559280       1.38136071       0.00000000       0.00000000       0.00000000       0.00000000      -0.00200739       0.00054134      -0.01622643
Si       4.03966153       6.83390529       6.83389502       0.00000000       0.00000000       0.00000000       0.00000000       0.06547237      -0.03630128      -0.03525015
Si       9.53484653       1.37524734       1.37513719       0.00000000       0.00000000       0.00000000       0.00000000      -0.00139638      -0.01188051      -0.01088978
Si       9.53441805       1.37589870       6.81646131       0.00000000       0.00000000       0.00000000       0.00000000      -0.01618341       0.00803467      -0.00988588
Si       9.53434672       6.81650946       1.37575180       0.00000000       0.00000000       0.00000000       0.00000000      -0.01581676      -0.01003307       0.00964919
Si       9.53085946       6.79737105       6.79729852       0.00000000       0.00000000       0.00000000       0.00000000       0.00351734       0.00064232       0.00101049
Si       2.75237776       2.75220915       2.75228732       0.00000000       0.00000000       0.00000000       0.00000000       0.01393575       0.01538940       0.01474191
Si       2.72178056       2.72179815       8.16325200       0.00000000       0.00000000       0.00000000       0.00000000      -0.01606704      -0.01517910      -0.00673505
Si       2.72177379       8.16318769       2.72190937       0.00000000       0.00000000       0.00000000       0.00000000      -0.01586983      -0.00610653      -0.01554029
Si       2.72366229       8.20365961       8.20374284       0.00000000       0.00000000       0.00000000       0.00000000       0.02037931      -0.01710155      -0.01719026
Si       8.16332850       2.72182046       2.72167490       0.00000000       0.00000000       0.00000000       0.00000000      -0.00759339      -0.01578596      -0.01553844
Si       8.20367368       2.72380138       8.20357483       0.00000000       0.00000000       0.00000000       0.00000000      -0.01751483       0.02024041      -0.01711934
Si       8.20367800       8.20364217       2.72372992       0.00000000       0.00000000       0.00000000       0.00000000      -0.01743481      -0.01709005       0.02022836
Si       8.15546164       8.15556988       8.15552182       0.00000000       0.00000000       0.00000000       0.00000000       0.01003076       0.01074969       0.01048042
65
Lattice="10.862 0.0 0.0 0.0 10.862 0.0 0.0 0.0 10.862" Properties=species:S:1:pos:R:3:initial_magmoms:R:1:momenta:R:3:forces:R:3 energy=-7051.985435 pbc="T T T"
Li       6.13838172       6.13841319       6.13839661       0.00000000       0.00000000       0.00000000       0.00000000       0.00040586      -0.00004864       0.00026914
Si       1.39342975       4.09550586       1.39344048       0.00000000       0.00000000       0.00000000       0.00000000       0.00421707       0.01572425       0.00232046
Si       1.38353345       4.10153728       6.81584039       0.00000000       0.00000000       0.00000000       0.00000000      -0.01017719       0.00020421      -0.00029013
Si       1.37798099       9.53532871       1.37815051       0.00000000       0.00000000       0.00000000       0.00000000      -0.00516266      -0.00906661      -0.00727020
Si       1.37570508       9.54246841       6.81389467       0.00000000       0.00000000       0.00000000       0.00000000       0.00900507       0.00018126      -0.01589853
Si       6.81601951       4.10152346       1.38347257       0.00000000       0.00000000       0.00000000       0.00000000      -0.00253760       0.00033438      -0.01119304
Si       6.85943691       4.01841030       6.85944179       0.00000000       0.00000000       0.00000000       0.00000000       0.00570648       0.04592092       0.00465526
Si       6.81383785       9.54249000       1.37585411       0.00000000       0.00000000       0.00000000       0.00000000      -0.01673424       0.00029213       0.00673408
Si       6.80763394       9.54027956       6.80767987       0.00000000       0.00000000       0.00000000       0.00000000       0.00666324       0.00127799       0.00770448
Si       0.03652717       0.03635384       2.74112792       0.00000000       0.00000000       0.00000000       0.00000000       0.00475402       0.00910891       0.00804265
Si       0.02102441       0.02096689       8.18088642       0.00000000       0.00000000       0.00000000       0.00000000      -0.00431713       0.00026142      -0.01510518
Si       0.03878035       5.46273123       2.73400912       0.00000000       0.00000000       0.00000000       0.00000000      -0.00869110       0.01448607      -0.00145255
Si       0.03091185       5.46073575       8.17484429       0.00000000       0.00000000       0.00000000       0.00000000       0.01049094      -0.00119597       0.00038494
Si       5.46261869       0.03849962       2.73410001       0.00000000       0.00000000       0.00000000       0.00000000       0.01652874      -0.00512069      -0.00070335
Si       5.46043052       0.03084830       8.17501740       0.00000000       0.00000000       0.00000000       0.00000000       0.00258170       0.01295815       0.00072359
Si       5.46882702       5.46878604       2.73635410       0.00000000       0.00000000       0.00000000       0.00000000      -0.00640054      -0.00940188      -0.00244203
Si       5.41721465       5.41689678       8.25805546       0.00000000       0.00000000       0.00000000       0.00000000      -0.00813467      -0.00541384      -0.04569964
Si       1.39342024       1.39349978       4.09560385       0.00000000       0.00000000       0.00000000       0.00000000       0.00455672      -0.00014359       0.01501066
Si       1.37794196       1.37813893       9.53534303       0.00000000       0.00000000       0.00000000       0.00000000      -0.00473123      -0.00926549      -0.00807481
Si       1.38357124       6.81573710       4.10165979       0.00000000       0.00000000       0.00000000       0.00000000      -0.01043395       0.00082159      -0.00079736
Si       1.37567430       6.81372484       9.54248917       0.00000000       0.00000000       0.00000000       0.00000000       0.00919279      -0.01408452       0.00151661
Si       6.81604019       1.38362863       4.10147818       0.00000000       0.00000000       0.00000000       0.00000000      -0.00262068      -0.01286119      -0.00078117
Si       6.81383731       1.37596925       9.54240597       0.00000000       0.00000000       0.00000000       0.00000000      -0.01665955       0.00527876       0.00057780
Si       6.85927815       6.85957308       4.01841561       0.00000000       0.00000000       0.00000000       0.00000000       0.00810194       0.00517140       0.04575439
Si       6.80762150       6.80766827       9.54017104       0.00000000       0.00000000       0.00000000       0.00000000       0.00677827       0.00964807       0.00198053
Si       0.03650207       2.74115919       0.03632927       0.00000000       0.00000000       0.00000000       0.00000000       0.00480334       0.00897755       0.00724838
Si       0.03877236       2.73403972       5.46256700       0.00000000       0.00000000       0.00000000       0.00000000      -0.00923955      -0.00043776       0.01597010
Si       0.02101688       8.18097728       0.02101452       0.00000000       0.00000000       0.00000000       0.00000000      -0.00386021      -0.01556230      -0.00219836
Si       0.03094616       8.17495138       5.46062194       0.00000000       0.00000000       0.00000000       0.00000000       0.01027843       0.00011491       0.00033389
Si       5.46262403       2.73401610       0.03861851       0.00000000       0.00000000       0.00000000       0.00000000       0.01674150      -0.00046433      -0.00676643
Si       5.46881553       2.73624666       5.46877060       0.00000000       0.00000000       0.00000000       0.00000000      -0.00633080      -0.00178929      -0.00754607
Si       5.46044975       8.17496974       0.03101852       0.00000000       0.00000000       0.00000000       0.00000000       0.00238706      -0.00029449       0.01107517
Si       5.41707307       8.25801347       5.41702191       0.00000000       0.00000000       0.00000000       0.00000000      -0.00621036      -0.04513912      -0.00461355
Si       4.12258206       4.12236441       4.12246623       0.00000000       0.00000000       0.00000000       0.00000000      -0.01795161      -0.01612430      -0.01696126
Si       4.05410193       4.05403315       9.56747608       0.00000000       0.00000000       0.00000000       0.00000000       0.00131069       0.00289619      -0.01504395
Si       4.05414863       9.56738892       4.05422659       0.00000000       0.00000000       0.00000000       0.00000000       0.00066017      -0.01466016       0.00095036
Si       4.11187825       9.55151305       9.55160785       0.00000000       0.00000000       0.00000000       0.00000000      -0.00580251       0.00557091       0.00590771
Si       9.56755300       4.05399768       4.05389191       0.00000000       0.00000000       0.00000000       0.00000000      -0.01547057       0.00328450       0.00333488
Si       9.55145242       4.11200192       9.55135962       0.00000000       0.00000000       0.00000000       0.00000000       0.00643723      -0.00546640       0.00610889