2
Properties=species:S:1:pos:R:3:forces:R:3 energy=0.0 pbc="F F F"
H 0.000000 0.000000 0.000000 0.000000 0.000000 0.000000
H 0.740000 0.000000 0.000000 0.000000 0.000000 0.000000
2
Properties=species:S:1:pos:R:3:forces:R:3 energy=0.4 pbc="F F F"
H 0.000000 0.000000 0.000000 0.000000 0.000000 0.000000
H 0.870000 0.000000 0.000000 0.000000 0.000000 0.000000
2
Properties=species:S:1:pos:R:3:forces:R:3 energy=0.1 pbc="F F F"
H 0.000000 0.000000 0.000000 0.000000 0.000000 0.000000
H 1.000000 0.000000 0.000000 0.000000 0.000000 0.000000
