2
Properties=species:S:1:pos:R:3:forces:R:3 energy=-1.0 pbc="F F F"
H 0.000000 0.000000 0.000000 0.000000 0.000000 0.000000
H 0.800000 0.000000 0.000000 0.010000 0.000000 0.000000
2
Properties=species:S:1:pos:R:3:forces:R:3 energy=-1.1 pbc="F F F"
H 0.000000 0.000000 0.000000 0.000000 0.000000 0.000000
H 0.740000 0.000000 0.000000 0.001000 0.000000 0.000000
