66
Lattice="11.535195231870897 0.0 0.0 0.0 19.063792730541298 0.0 -5.767597615935449 0.0 9.98977233478067" Properties=species:S:1:pos:R:3:move_mask:L:1:initial_magmoms:R:1:forces:R:3 energy=-202.77431961894035 free_energy=-202.77431961894035 stress="-0.004856636347587502 0.00010772570888132852 -0.00030697105512179874 0.00010772570888132852 -0.015901575349999204 -3.127457778190949e-05 -0.00030697105512179874 -3.127457778190949e-05 -0.005471254075094769" pbc="T T T"
H        2.18182093      10.16229277       6.62508815  T       0.00000000      -0.03178798       0.02620673      -0.04056805
H        1.69203302      10.23402951       5.58164497  T       0.00000000      -0.00679237      -0.22448260       0.00858510
Au       0.23070967       1.89764806       0.40002045  F       0.00000000       0.00034520      -0.47399340      -0.00152211
Au       3.11466997       1.89618014       0.39952096  F       0.00000000      -0.00218050      -0.47992257      -0.00376247
Au       5.99906861       1.89724772       0.39890160  F       0.00000000      -0.00289835      -0.47068768       0.00279244
Au       8.88234834       1.89839154       0.39922127  F       0.00000000       0.00211551      -0.47186523       0.00296725
Au      -1.21064758       1.89850593       2.89726374  F       0.00000000      -0.00198155      -0.47349250      -0.00333388
Au       1.67258024       1.89783869       2.89715385  F       0.00000000       0.00106341      -0.47744107      -0.00507364
Au       4.55675394       1.89669487       2.89692409  F       0.00000000       0.00252432      -0.47379773      -0.00515606
Au       7.44138328       1.89715240       2.89656446  F       0.00000000      -0.00282147      -0.46561346       0.00128745
Au      -2.65200483       1.89732397       5.39440713  F       0.00000000      -0.00392265      -0.47175396       0.00141589
Au       0.23107880       1.89848686       5.39442711  F       0.00000000      -0.00173113      -0.47561702       0.00000884
Au       3.11460076       1.89802933       5.39454699  F       0.00000000       0.00270127      -0.46906618      -0.00100833
Au       5.99870525       1.89667580       5.39447706  F       0.00000000       0.00540710      -0.47192485       0.00085860
Au      -4.09457904       1.89616108       7.89211994  F       0.00000000       0.00223507      -0.48111457       0.00458872
Au      -1.21064181       1.89722865       7.89176031  F       0.00000000      -0.00457628      -0.47589012       0.00279875
Au       1.67297243       1.89841061       7.89180027  F       0.00000000      -0.00109391      -0.47509657       0.00184298
Au       4.55649440       1.89774337       7.89215990  F       0.00000000       0.00512948      -0.47585987       0.00177281
Au       0.23053088       4.24956723       2.06362723  F       0.00000000      -0.00309538       0.17438456       0.01244895
Au       3.11499296       4.24666953       2.06233855  F       0.00000000       0.01034793       0.21668393       0.06497519
Au       5.99962807       4.24851872       2.06346739  F       0.00000000       0.00617424       0.18030470       0.00823712
Au       8.88267132       4.25073012       2.06439644  F       0.00000000      -0.01106743       0.19338776       0.00454585
Au      -1.21182994       4.24903344       4.56142995  F       0.00000000       0.00478023       0.20454147       0.01504853
Au       1.67239568       4.24625013       4.56087052  F       0.00000000       0.02370582       0.23616622       0.02068104
Au       4.55887065       4.24546851       4.56083056  F       0.00000000      -0.04331365       0.24284552       0.03503544
Au       7.44190237       4.24853778       4.56171965  F       0.00000000      -0.00886684       0.17582074      -0.00830634
Au      -2.65314681       4.24792774       7.06022165  F       0.00000000       0.04042058       0.20064930      -0.02722797
Au       0.22998872       4.24684111       7.06011176  F       0.00000000       0.01525752       0.22943643      -0.00532672
Au       3.11559279       4.24630732       7.06052134  F       0.00000000       0.00275846       0.24681773      -0.03451732
Au       6.00066047       4.24668860       7.06054132  F       0.00000000      -0.06695113       0.22712319      -0.05053670
Au      -4.09479244       4.24886187       9.55724516  F       0.00000000       0.01042387       0.13960909      -0.00596647
Au      -1.21161077       4.24790868       9.55685556  F       0.00000000       0.04579307       0.20281632      -0.02002723
Au       1.67303011       4.24910970       9.55795444  F       0.00000000      -0.00874122       0.20442679      -0.00883095
Au       4.55731916       4.24960536       9.55778461  F       0.00000000      -0.01673198       0.17289285      -0.00342454
Au       1.68210005       6.59976172       1.22461761  T       0.00000000      -0.01165603       0.11148059       0.00690047
Au       4.56028443       6.60402868       1.23055867  T       0.00000000      -0.01523592       0.09376893       0.00458501
Au       7.43673066       6.61781450       1.23371111  T       0.00000000       0.02099326       0.07731952       0.00335805
Au      10.32189069       6.61228023       1.23454033  T       0.00000000       0.03075899       0.08282233      -0.01938811
Au       0.23116245       6.61243131       3.71817545  T       0.00000000       0.00485863       0.10103324       0.03755369
Au       3.10289487       6.63314191       3.74459489  T       0.00000000       0.01180848       0.05454553      -0.03592953
Au       5.98280706       6.60708771       3.73805662  T       0.00000000       0.03228753       0.09279411      -0.01800532
Au       8.87841722       6.61547069       3.73483778  T       0.00000000       0.01360365       0.08450555      -0.02076006
Au      -1.19051337       6.62444710       6.21876895  T       0.00000000      -0.02641095       0.09613999      -0.01022121
Au       1.67259922       6.63858549       6.22733131  T       0.00000000       0.00086173       0.10311917      -0.00328408
Au       4.52966339       6.64312100       6.22460142  T       0.00000000       0.05498094       0.01609805       0.01476338
Au       7.44174806       6.60200919       6.22608955  T       0.00000000      -0.01036766       0.09917019       0.00400934
Au      -2.63827520       6.60243742       8.71717588  T       0.00000000       0.01204550       0.11845263      -0.00999152
Au       0.25209599       6.62699011       8.71597083  T       0.00000000      -0.01504857       0.08839581       0.01947108
Au       3.12338047       6.61432944       8.72891867  T       0.00000000      -0.02577592       0.09135478      -0.01218526
Au       6.00676747       6.59720399       8.71910099  T       0.00000000      -0.01008210       0.11939219       0.00475147
Au       0.25169837       9.03952979       0.38845335  T       0.00000000      -0.01925174       0.17839928      -0.00052513
Au       3.13023812       9.03557918       0.37476874  T       0.00000000      -0.00015508       0.18828532      -0.00292292
Au       5.98939222       9.04649049       0.42283238  T       0.00000000       0.03708888       0.16873053      -0.02079690
Au       8.90541803       9.05554799       0.44127697  T       0.00000000      -0.02353700       0.16051297      -0.02609902
Au      -1.22907929       9.05685123       2.86785275  T       0.00000000       0.01157175       0.15671688       0.02281297
Au       1.66840158       9.03806739       2.83180906  T       0.00000000       0.01859558       0.15992301       0.02962752
Au       4.56240162       9.03836108       2.87420291  T       0.00000000       0.03184190       0.18138530      -0.05204458
Au       7.43081935       9.03803413       2.90777548  T       0.00000000       0.01260878       0.19172632      -0.00621542
Au      -2.66829732       9.04209693       5.39428219  T       0.00000000       0.02296345       0.17303335      -0.01656212
Au       0.17431253       9.06651455       5.31721176  T       0.00000000       0.13007841       0.29551754       0.07427977
Au       3.21163812       9.12444440       5.33206465  T       0.00000000      -0.30191223       0.32643991       0.11705683
Au       6.01507003       9.03435083       5.40157374  T       0.00000000       0.09232206       0.19379024      -0.00675652
Au      -4.06963187       9.02954927       7.88706564  T       0.00000000       0.00895818       0.19660748       0.00884156
Au      -1.18703806       9.04177040       7.87909314  T       0.00000000      -0.01619248       0.17353544       0.01199277
Au       1.70616532       9.08272717       7.99639351  T       0.00000000      -0.03124196       0.19047712      -0.06230649
Au       4.60487882       9.03433437       7.92632810  T       0.00000000      -0.00398914       0.16803247      -0.00131182
