66
Lattice="11.535195231870897 0.0 0.0 0.0 19.063792730541298 0.0 -5.767597615935449 0.0 9.98977233478067" Properties=species:S:1:pos:R:3:move_mask:L:1:initial_magmoms:R:1:forces:R:3:magmoms:R:1 energy=-239255.1112579723 free_energy=-239255.1112579723 pbc="T T T"
H        2.17637093      10.17345156       6.60653358  T       0.00000000      -0.02656811      -0.04165984      -0.06261974       0.00000000
H        1.66840785      10.21593094       5.59265226  T       0.00000000       0.04034729      -0.08375228       0.08512456       0.00000000
Au       0.23070967       1.89764806       0.40002045  F       0.00000000       0.01119140      -0.24197259      -0.00726932       0.00000001
Au       3.11466997       1.89618014       0.39952096  F       0.00000000      -0.00173603      -0.25167090      -0.00716426       0.00000001
Au       5.99906861       1.89724772       0.39890160  F       0.00000000      -0.00884591      -0.25373185       0.00581262       0.00000000
Au       8.88234834       1.89839154       0.39922127  F       0.00000000       0.00549633      -0.24844355       0.01648860       0.00000001
Au      -1.21064758       1.89850593       2.89726374  F       0.00000000      -0.00925187      -0.24655776      -0.01220987       0.00000001
Au       1.67258024       1.89783869       2.89715385  F       0.00000000       0.00303874      -0.27736855      -0.00181695       0.00000002
Au       4.55675394       1.89669487       2.89692409  F       0.00000000       0.02286910      -0.23761865      -0.00207411       0.00000001
Au       7.44138328       1.89715240       2.89656446  F       0.00000000      -0.00090056      -0.29371464       0.00099953       0.00000000
Au      -2.65200483       1.89732397       5.39440713  F       0.00000000      -0.00746988      -0.25617988       0.00505283       0.00000000
Au       0.23107880       1.89848686       5.39442711  F       0.00000000       0.02189617      -0.23335362      -0.02685123       0.00000002
Au       3.11460076       1.89802933       5.39454699  F       0.00000000      -0.03316750      -0.24829394       0.01450213       0.00000002
Au       5.99870525       1.89667580       5.39447706  F       0.00000000       0.01572264      -0.23816539      -0.01667934       0.00000001
Au      -4.09457904       1.89616108       7.89211994  F       0.00000000       0.00257030      -0.25201864       0.00676502       0.00000001
Au      -1.21064181       1.89722865       7.89176031  F       0.00000000      -0.05093498      -0.28316359       0.02892199       0.00000001
Au       1.67297243       1.89841061       7.89180027  F       0.00000000       0.03513537      -0.23252393      -0.00820837       0.00000002
Au       4.55649440       1.89774337       7.89215990  F       0.00000000       0.00877908      -0.27618773       0.00365204       0.00000002
Au       0.23053088       4.24956723       2.06362723  F       0.00000000      -0.01463763       0.21908456       0.00311164       0.00000001
Au       3.11499296       4.24666953       2.06233855  F       0.00000000      -0.00724449       0.24921962       0.04718006       0.00000001
Au       5.99962807       4.24851872       2.06346739  F       0.00000000      -0.04756093       0.22681320      -0.02409088       0.00000002
Au       8.88267132       4.25073012       2.06439644  F       0.00000000       0.05855792       0.23601987      -0.02890654       0.00000001
Au      -1.21182994       4.24903344       4.56142995  F       0.00000000       0.00197631       0.24711987       0.05018440       0.00000001
Au       1.67239568       4.24625013       4.56087052  F       0.00000000       0.03107413       0.27398679       0.01147786       0.00000002
Au       4.55887065       4.24546851       4.56083056  F       0.00000000       0.00658883       0.23419720       0.00637253       0.00000002
Au       7.44190237       4.24853778       4.56171965  F       0.00000000      -0.00784645       0.22066781       0.05297500       0.00000002
Au      -2.65314681       4.24792774       7.06022165  F       0.00000000       0.06848420       0.24958567      -0.02905634       0.00000002
Au       0.22998872       4.24684111       7.06011176  F       0.00000000      -0.01788775       0.25656013       0.01405610       0.00000001
Au       3.11559279       4.24630732       7.06052134  F       0.00000000       0.01237801       0.27449980      -0.02306906       0.00000001
Au       6.00066047       4.24668860       7.06054132  F       0.00000000      -0.05814290       0.27725135      -0.02193204       0.00000001
Au      -4.09479244       4.24886187       9.55724516  F       0.00000000      -0.01449556       0.16748947       0.00736352       0.00000002
Au      -1.21161077       4.24790868       9.55685556  F       0.00000000       0.06328982       0.28242502      -0.04554174       0.00000002
Au       1.67303011       4.24910970       9.55795444  F       0.00000000      -0.04425193       0.24870412      -0.03322986       0.00000002
Au       4.55731916       4.24960536       9.55778461  F       0.00000000      -0.01201888       0.24930312      -0.00854869       0.00000002
Au       1.68423111       6.58508946       1.22437234  T       0.00000000      -0.02706272       0.01028380      -0.02045886       0.00000002
Au       4.55807217       6.59090233       1.23084509  T       0.00000000       0.04876347       0.04130742      -0.04248859       0.00000001
Au       7.43973746       6.61138786       1.23711868  T       0.00000000      -0.04214118      -0.01978502      -0.00433629       0.00000001
Au      10.31734482       6.60149335       1.23743938  T       0.00000000       0.02294687       0.02820079      -0.01361751       0.00000002
Au       0.23939709       6.59923474       3.71274918  T       0.00000000      -0.02171519       0.08230345       0.05446987       0.00000001
Au       3.09986941       6.62004568       3.74136345  T       0.00000000       0.01369552       0.05104132       0.06550627       0.00000001
Au       5.99325522       6.58780821       3.73233830  T       0.00000000      -0.02973383       0.06365333       0.01696933      -0.00000000
Au       8.87396120       6.61134883       3.73449474  T       0.00000000       0.04183727      -0.02019335       0.01387858       0.00000001
Au      -1.18546439       6.62076468       6.22784550  T       0.00000000       0.01925667       0.02184030      -0.05981876       0.00000001
Au       1.67183664       6.62698078       6.23440728  T       0.00000000       0.02672388       0.01946840      -0.08390335       0.00000001
Au       4.52828939       6.62713991       6.22884009  T       0.00000000       0.00052587       0.05425949      -0.03220614       0.00000001
Au       7.44917765       6.58984348       6.22596308  T       0.00000000      -0.01682916       0.01870856      -0.01869957       0.00000001
Au      -2.64427290       6.58569458       8.71571732  T       0.00000000       0.02830303       0.01994208       0.03027261       0.00000001
Au       0.25388913       6.62770283       8.70284966  T       0.00000000      -0.06132495      -0.07739557       0.07044542       0.00000001
Au       3.12360261       6.60823371       8.72585574  T       0.00000000       0.05337868      -0.01806009       0.00780080       0.00000001
Au       6.00950148       6.58790367       8.71726633  T       0.00000000      -0.02460533      -0.05570214       0.02025121       0.00000002
Au       0.25740923       9.02462287       0.37486739  T       0.00000000      -0.03148768       0.00341259       0.13445282       0.00000002
Au       3.12139831       9.01908689       0.37775333  T       0.00000000       0.07094678      -0.00995992      -0.00480056       0.00000001
Au       5.99535365       9.02957470       0.41634345  T       0.00000000      -0.10702841      -0.00273960       0.12097540       0.00000000
Au       8.90026638       9.03805792       0.43984783  T       0.00000000       0.06368350       0.01628682       0.01920082       0.00000001
Au      -1.23625362       9.04397836       2.86322055  T       0.00000000       0.10725967      -0.02357214       0.03208504       0.00000001
Au       1.67175720       9.02326383       2.83169058  T       0.00000000      -0.05463405      -0.02101199       0.02835009       0.00000000
Au       4.56396043       9.02587822       2.87255129  T       0.00000000       0.03042321      -0.03335143       0.00436385      -0.00000000
Au       7.43869967       9.01974714       2.90682131  T       0.00000000      -0.05979559       0.00620286      -0.01305659       0.00000000
Au      -2.67218736       9.02589628       5.39170229  T       0.00000000       0.05675779       0.00276728       0.05509902      -0.00000000
Au       0.17248118       9.06279635       5.32133905  T       0.00000000      -0.03759562      -0.03108232      -0.09674084       0.00000001
Au       3.19978323       9.12278179       5.33595075  T       0.00000000      -0.06478940       0.02789279       0.08740926       0.00000000
Au       6.02797841       9.02207210       5.40044064  T       0.00000000      -0.07167423      -0.03023770      -0.00941673      -0.00000000
Au      -4.08217882       9.01331212       7.89392484  T       0.00000000       0.09895623       0.01801324      -0.06381116       0.00000001
Au      -1.18274358       9.02396352       7.88242302  T       0.00000000      -0.09748436       0.01530516      -0.00738988      -0.00000000
Au       1.69666180       9.05247966       8.02668433  T       0.00000000       0.12664013       0.08112655      -0.18963688       0.00000001
Au       4.61230007       9.01611162       7.93890615  T       0.00000000      -0.10761526       0.00486760      -0.09731340       0.00000000
