299
Lattice="20.531 0.0 0.0 0.0 20.3034 0.0 0.0 0.0 13.6297" Properties=species:S:1:pos:R:3:momenta:R:3:forces:R:3 energy=-105977.52643714681 free_energy=-105977.52643714681 stress="0.005796891191598145 0.0006643679896967325 -0.0007623203718265117 0.0006643679896967325 0.00690745729498539 -0.0009217585102837123 -0.0007623203718265117 -0.0009217585102837123 0.005693940242833433" magmom=1.0 pbc="T T T"
H        8.33257266       8.16536441       2.92336531       0.00000000       0.00000000       0.00000000       0.03063739      -0.00848393      -0.02870738
H       11.81005145       8.30678495       4.89084958       0.00000000       0.00000000       0.00000000      -0.00667131       0.00286205       0.00284526
H        7.79173107       6.93588793       3.72743441       0.00000000       0.00000000       0.00000000      -0.00555194       0.02971022      -0.00399701
H       12.27176107       9.94350143       5.55213414       0.00000000       0.00000000       0.00000000      -0.00553141      -0.01442709       0.00667798
H        8.69873663       8.59400356       4.93547377       0.00000000       0.00000000       0.00000000       0.00701418       0.00351486      -0.00984907
H       12.84032670       8.41690614       6.38790033       0.00000000       0.00000000       0.00000000      -0.00715377      -0.00389849      -0.00756504
C       12.07177207       8.89213456       5.77588936       0.00000000       0.00000000       0.00000000       0.00717915       0.00984771      -0.01009337
O       11.58863587       6.70513022       0.66474980       0.00000000       0.00000000       0.00000000       0.00243751       0.00015912       0.00574682
O       11.20936575      15.25618280       0.75637516       0.00000000       0.00000000       0.00000000      -0.00946722      -0.00560010       0.00818980
O       11.32659998       2.79008960       0.67218594       0.00000000       0.00000000       0.00000000       0.03263673      -0.01092087      -0.00135829
O       11.47251757      10.68688282       1.01205389       0.00000000       0.00000000       0.00000000      -0.00521411       0.00559024       0.00881231
O        1.50699494       4.66706220       0.96950520       0.00000000       0.00000000       0.00000000      -0.00219093      -0.00438151       0.00595018
O        1.19934333       0.74175480       1.00693659       0.00000000       0.00000000       0.00000000       0.00535775       0.00905895       0.00505380
O        1.21299626      16.69277170       1.04692090       0.00000000       0.00000000       0.00000000      -0.00169163      -0.00360626       0.00114666
O       13.28696800       8.73439149       1.20925137       0.00000000       0.00000000       0.00000000       0.01128405       0.02081859       0.00886620
O       13.52846788      16.55199403       1.00695060       0.00000000       0.00000000       0.00000000      -0.00775703       0.00709186       0.00329135
O        9.72876706       8.60578137       1.26189465       0.00000000       0.00000000       0.00000000       0.01353953      -0.01844260       0.00344262
O       17.27111133      17.26735090       1.25703694       0.00000000       0.00000000       0.00000000       0.00568325       0.00143634      -0.00195798
O        9.18570412      13.54059148       1.16125277       0.00000000       0.00000000       0.00000000      -0.00804768      -0.02797621       0.03207500
O       17.34195256       0.13210017       1.22202855       0.00000000       0.00000000       0.00000000       0.01054934      -0.00170432      -0.01570096
O        1.35377027      12.80142151       1.19516053       0.00000000       0.00000000       0.00000000      -0.00193711      -0.00050086       0.00483480
O        8.80767952      16.19255351       1.42413309       0.00000000       0.00000000       0.00000000       0.00697435      -0.00695549       0.00420664
O       17.27379779      12.38279802       1.37581258       0.00000000       0.00000000       0.00000000       0.00955037       0.00235237       0.00281829
O       17.54896435       5.08292140       1.28218357       0.00000000       0.00000000       0.00000000      -0.01741381      -0.00393281      -0.00110749
O       13.43250229      13.87248991       1.22858488       0.00000000       0.00000000       0.00000000       0.00419067      -0.00587490       0.00873166
O       13.77839066       3.63181727       1.22914535       0.00000000       0.00000000       0.00000000       0.00052672       0.00390871       0.00074671
O       13.24918645       0.98796681       1.26548004       0.00000000       0.00000000       0.00000000       0.00629128      -0.00187816       0.00706583
O       14.02368593      11.28471469       1.48296538       0.00000000       0.00000000       0.00000000       0.00165159      -0.00755896      -0.00482839
O        9.63303300       0.84385209       1.48250121       0.00000000       0.00000000       0.00000000      -0.01378630      -0.02204113       0.00444012
O        8.98942030       3.38982909       1.84411517       0.00000000       0.00000000       0.00000000       0.00735584      -0.02233292      -0.01674322
O        9.03635459      11.02299450       1.97551160       0.00000000       0.00000000       0.00000000      -0.00114589      -0.02266209       0.01476136
O       13.95856887       6.25077068       1.77600873       0.00000000       0.00000000       0.00000000      -0.00107693      -0.00281246       0.00088429
O        9.16916153       6.08652083       1.67378717       0.00000000       0.00000000       0.00000000      -0.02945989      -0.03162994      -0.01405288
O       14.09509982      18.91050822       2.07500794       0.00000000       0.00000000       0.00000000      -0.00376776      -0.00210794      -0.00064779
O       17.25522952       2.60574028       2.16313397       0.00000000       0.00000000       0.00000000       0.00173162       0.01534551       0.00823085
O        9.08340740      18.70268091       2.23223746       0.00000000       0.00000000       0.00000000       0.00543622       0.00937694       0.01804348
O       17.20215762      14.85621932       2.39553716       0.00000000       0.00000000       0.00000000      -0.00247320      -0.00482094       0.00235652
O        1.51739364       2.67861392       2.83441792       0.00000000       0.00000000       0.00000000      -0.00281196      -0.00778284       0.00289496
O        1.34712747      14.83778045       2.99931369       0.00000000       0.00000000       0.00000000       0.00105447      -0.00384579       0.00388373
O       15.31300763      16.69352269       3.00748686       0.00000000       0.00000000       0.00000000       0.01064667       0.00600373      -0.00351311
O       15.26322822      13.08478733       3.01675192       0.00000000       0.00000000       0.00000000       0.00754829      -0.00632024       0.01928272
O       15.54014596       4.51948267       3.01550544       0.00000000       0.00000000       0.00000000       0.02672236      -0.01423635      -0.00635063
O       15.38566589       0.81735559       2.92202823       0.00000000       0.00000000       0.00000000       0.01882821       0.00448060      -0.00096335
O        7.42432528      12.80881567       3.07378536       0.00000000       0.00000000       0.00000000       0.00321259       0.00374557       0.01051440
O        2.68648427       0.29834424       3.13086952       0.00000000       0.00000000       0.00000000      -0.00563122       0.00560979       0.00264811
O        2.56558790      17.20347471       3.24535192       0.00000000       0.00000000       0.00000000      -0.00174421       0.00162046      -0.00558571
O       20.49925188       4.84221020       3.12973041       0.00000000       0.00000000       0.00000000       0.00288770      -0.01437812       0.01654893
O        2.64825792       5.04381176       3.32899055       0.00000000       0.00000000       0.00000000       0.00523975      -0.01075807      -0.00086401
O        7.43899915      17.09481785       3.54995911       0.00000000       0.00000000       0.00000000      -0.00203564      -0.01401216       0.01375303
O       20.39098846      17.03939757       3.30528338       0.00000000       0.00000000       0.00000000       0.01693395      -0.01362219       0.00720424
O        0.00043342       0.53939822       3.38545464       0.00000000       0.00000000       0.00000000      -0.00222071      -0.01245024       0.00691246
O       20.28401897      12.70597663       3.31410119       0.00000000       0.00000000       0.00000000      -0.00943433       0.00614109      -0.00531271
O       12.68879368      12.49334284       3.44793916       0.00000000       0.00000000       0.00000000      -0.00856025       0.00596287       0.02027631
O       10.02487024      12.94234863       3.64366727       0.00000000       0.00000000       0.00000000      -0.01320268       0.00221999      -0.00430337
O        7.65627726       5.00078753       3.51890732       0.00000000       0.00000000       0.00000000      -0.03154630      -0.01498203       0.04500041
O        2.42194260      12.48449138       3.62388815       0.00000000       0.00000000       0.00000000       0.00767599      -0.00386605       0.00837774
O        7.70223943       0.43192542       3.34129195       0.00000000       0.00000000       0.00000000      -0.02332622      -0.00278694       0.00862896
O       10.06733987      16.69736156       3.75615936       0.00000000       0.00000000       0.00000000       0.00135198      -0.01708423       0.00209230
O       12.72405685      17.11297848       3.51609480       0.00000000       0.00000000       0.00000000      -0.00312040       0.00336896      -0.00452716
O       17.78637563      17.02229306       3.88469608       0.00000000       0.00000000       0.00000000       0.00469729      -0.00677327      -0.00031106
O       17.88383290       0.58279683       3.81836810       0.00000000       0.00000000       0.00000000       0.00671766      -0.00913468       0.01533541
O       12.97757697       4.58810093       3.64389695       0.00000000       0.00000000       0.00000000       0.01180811      -0.00529421      -0.00220047
O       17.70031327      12.74029055       3.99659405       0.00000000       0.00000000       0.00000000      -0.02203163       0.00372403       0.01527651
O       17.97888874       4.53830521       3.90183705       0.00000000       0.00000000       0.00000000      -0.00910416      -0.00337396      -0.00353441
O       10.31906651       4.84228652       3.72308864       0.00000000       0.00000000       0.00000000       0.01534773      -0.01010692       0.00373198
O       10.27318319       0.02005617       3.98315673       0.00000000       0.00000000       0.00000000      -0.01264274      -0.00117882      -0.01394647
O       12.96533843       0.27065290       3.84921192       0.00000000       0.00000000       0.00000000       0.01335083      -0.00962715       0.00010146
O        7.98664847       7.89254824       3.79332194       0.00000000       0.00000000       0.00000000       0.00133514       0.02590289      -0.02974437
O        5.15249480       0.80454784       4.03345568       0.00000000       0.00000000       0.00000000      -0.01575383      -0.00427096      -0.00101293
O        5.01324920      12.89865684       4.12977241       0.00000000       0.00000000       0.00000000      -0.00723181      -0.00023005      -0.00300995
O        5.10559299       4.47646834       4.12729240       0.00000000       0.00000000       0.00000000      -0.00584122       0.00823074      -0.00213227
O        4.94138277      16.55916566       4.27194244       0.00000000       0.00000000       0.00000000      -0.00201150       0.01007159       0.00322231
O       11.40402883       2.43582805       3.97254208       0.00000000       0.00000000       0.00000000      -0.00330175      -0.00570525       0.00878448
O       11.79365225      14.78936913       4.45073931       0.00000000       0.00000000       0.00000000       0.00086255      -0.01232758       0.00531639
O        7.02582525       2.63560946       4.66931388       0.00000000       0.00000000       0.00000000      -0.00252202      -0.00756988       0.00445481
O        6.86624608      14.78155996       4.79463229       0.00000000       0.00000000       0.00000000       0.00443470      -0.01878786       0.00635357
O        3.82717460      18.91997879       4.87784592       0.00000000       0.00000000       0.00000000      -0.00250858       0.01535321       0.00596905
O       19.37833174      18.93641251       4.89402281       0.00000000       0.00000000       0.00000000       0.01137621       0.01551308       0.00317992
O       19.51153784       6.33381461       5.13027417       0.00000000       0.00000000       0.00000000      -0.00585536      -0.00637388       0.00163757
O       19.35950352      11.12102772       5.28636737       0.00000000       0.00000000       0.00000000       0.01711191      -0.00270618       0.00010797
O        3.67375171       6.31011807       5.46869212       0.00000000       0.00000000       0.00000000      -0.00993085       0.00322621      -0.00263457
O        8.92228520       9.28972107       5.65731894       0.00000000       0.00000000       0.00000000      -0.01309627       0.01599404      -0.00354815
O       19.95548253       3.71823514       5.50980522       0.00000000       0.00000000       0.00000000       0.00733114       0.00066250       0.00653481
O        3.58437515      11.35568845       5.76953271       0.00000000       0.00000000       0.00000000       0.00380283      -0.00335699      -0.00533677
O       19.51760752      13.77728175       5.65677376       0.00000000       0.00000000       0.00000000      -0.00948921      -0.00854186       0.00386402
O        2.98700019       3.71936347       5.63188538       0.00000000       0.00000000       0.00000000       0.00915068      -0.00192496      -0.00353356
O        7.11977678      12.30646287       5.70327580       0.00000000       0.00000000       0.00000000       0.00834360       0.01032758      -0.00338342
O        3.17601824      14.01778076       5.70371383       0.00000000       0.00000000       0.00000000      -0.00081966      -0.00840522      -0.01764221
O       11.49056565      12.46463258       5.80618710       0.00000000       0.00000000       0.00000000      -0.00358867       0.00900672       0.00491497
O        3.02464562       1.01762647       5.67874450       0.00000000       0.00000000       0.00000000       0.01175752      -0.00120642       0.00747159
O       19.55717816      16.45898056       5.82174675       0.00000000       0.00000000       0.00000000       0.00212804      -0.00831205       0.00381429
O       19.56277476       1.09007351       5.85067980       0.00000000       0.00000000       0.00000000      -0.00147884       0.00821408      -0.00288484
O        2.76245985      16.67526171       5.85857493       0.00000000       0.00000000       0.00000000      -0.00436193      -0.01181939       0.01223165
O       11.63102318      17.02404581       5.90907109       0.00000000       0.00000000       0.00000000      -0.01343369       0.00374029      -0.01514948
O        6.77153990      17.07919506       6.15398517       0.00000000       0.00000000       0.00000000       0.00584038      -0.00587569      -0.00322071
O        2.91964005       8.79388846       6.12347955       0.00000000       0.00000000       0.00000000      -0.00335735       0.00441991      -0.00178110
O        6.83818704       4.92184569       6.06982424       0.00000000       0.00000000       0.00000000       0.00272529       0.00577656       0.00228610
O        6.94368679       0.25971050       5.93224673       0.00000000       0.00000000       0.00000000      -0.00011502       0.00954893      -0.02203468
O       11.69803954       4.25632125       5.94763362       0.00000000       0.00000000       0.00000000       0.00445275      -0.00255100      -0.00779298
O       19.99167720       8.70129329       6.18350762       0.00000000       0.00000000       0.00000000       0.00002906       0.00593768      -0.00118134
O       11.66673312       0.79756791       6.11052885       0.00000000       0.00000000       0.00000000      -0.00043480      -0.00170335      -0.00352499
O        1.12798339      10.77166655       6.62161287       0.00000000       0.00000000       0.00000000       0.00834372      -0.00294209       0.00668200
O        1.24419561       6.70049067       6.51883372       0.00000000       0.00000000       0.00000000      -0.00179490       0.00263940      -0.00040463
O        0.99315437      14.97773285       6.92669567       0.00000000       0.00000000       0.00000000       0.01454301       0.00388138      -0.00418137
O        1.13161689       2.34554157       7.00306299       0.00000000       0.00000000       0.00000000      -0.01354605       0.01381578      -0.00111869
O        9.35850463       5.07306572       6.90087990       0.00000000       0.00000000       0.00000000       0.00330105      -0.01097640      -0.00215813
O        9.26631665      16.94222668       7.13298351       0.00000000       0.00000000       0.00000000       0.01876339      -0.00976149       0.00240973
O        9.23493419       0.66032974       7.23088995       0.00000000       0.00000000       0.00000000      -0.00327138      -0.00264709      -0.00801205
O        9.25390309      12.47836830       7.31822280       0.00000000       0.00000000       0.00000000      -0.00444278      -0.00482084       0.00250812
O       10.98268881      18.97354147       7.61709926       0.00000000       0.00000000       0.00000000       0.00467620      -0.01656933       0.00786283
O       19.42277371       6.58307095       7.77763628       0.00000000       0.00000000       0.00000000       0.00375139      -0.00099672      -0.00368276
O       19.30013729      10.62020568       7.90463353       0.00000000       0.00000000       0.00000000      -0.00181222      -0.00392843      -0.00176324
O        7.58779557      18.90052725       7.93125218       0.00000000       0.00000000       0.00000000       0.00256357      -0.00806365      -0.00863367
O        7.11434848      11.06213417       8.04235391       0.00000000       0.00000000       0.00000000      -0.00187303       0.00941058       0.00931193
O        3.66733112       2.38999001       7.84181613       0.00000000       0.00000000       0.00000000       0.00563983      -0.00938684      -0.02085866
O        3.41884732       7.01888369       8.04642627       0.00000000       0.00000000       0.00000000      -0.00503175       0.00815976      -0.02231023
O       19.19849811       2.75913683       7.91736435       0.00000000       0.00000000       0.00000000       0.00480528       0.00276472       0.00173529
O       19.09589323      14.96905361       8.00756001       0.00000000       0.00000000       0.00000000       0.00548049      -0.00251249       0.00965356
O       11.28823269      14.07867576       7.91521232       0.00000000       0.00000000       0.00000000       0.00205733      -0.00308801       0.00306230
O        6.98762147      13.77693767       7.93692076       0.00000000       0.00000000       0.00000000       0.00785101      -0.01032183      -0.00851249
O       11.66711371       6.14256060       7.84060914       0.00000000       0.00000000       0.00000000       0.01530585      -0.00310002      -0.00362656
O        3.40766517      15.30918167       8.02948070       0.00000000       0.00000000       0.00000000       0.00199027       0.00386501       0.00548180
O       11.52870667      11.42477199       8.24221565       0.00000000       0.00000000       0.00000000      -0.00867568      -0.00134935      -0.00455487
O        3.22152738      10.35217513       8.25545490       0.00000000       0.00000000       0.00000000       0.00172838       0.00078417      -0.01672602
O        7.42739190       6.44680817       8.13695993       0.00000000       0.00000000       0.00000000       0.00082822      -0.01050608      -0.00985682
O        7.51435104       3.76587423       8.39853136       0.00000000       0.00000000       0.00000000       0.00803161       0.02455413      -0.02296893
O        7.18481655      16.34949627       8.71231742       0.00000000       0.00000000       0.00000000      -0.00640240      -0.00708560      -0.00148712
O       11.55249167      16.61095987       8.56598946       0.00000000       0.00000000       0.00000000       0.00229061      -0.02115286       0.00062348
O       10.93474525       3.60308157       8.43522599       0.00000000       0.00000000       0.00000000       0.00394847       0.00181945       0.01012177
O        6.92168757       1.13565562       8.47425597       0.00000000       0.00000000       0.00000000       0.00930345      -0.00261156       0.00155124
O       11.55166955       8.79284914       8.68168873       0.00000000       0.00000000       0.00000000       0.00979090       0.01532937       0.00394761
O       11.43884845       1.00052789       8.75749480       0.00000000       0.00000000       0.00000000       0.00038983       0.01953797       0.00658865
O        3.45326229      12.86273187       9.08067424       0.00000000       0.00000000       0.00000000       0.00581986       0.00182838      -0.01117823
O        6.68626171       8.67829716       9.19313847       0.00000000       0.00000000       0.00000000       0.00279745      -0.01386512       0.00605797
O        3.37037445       4.63255234       9.27258839       0.00000000       0.00000000       0.00000000      -0.00839949      -0.00001075      -0.00885259
O       19.43219432      12.74867660       9.53152310       0.00000000       0.00000000       0.00000000      -0.01296880      -0.01620250       0.00168243
O       19.49135327       4.74184034       9.75385552       0.00000000       0.00000000       0.00000000       0.00307001      -0.01621586      -0.00672738
O        5.30391530      14.73895736       9.79346061       0.00000000       0.00000000       0.00000000      -0.01921690       0.00162170      -0.00017575
O        5.30484391       6.39903445       9.82188691       0.00000000       0.00000000       0.00000000      -0.01422961      -0.01131490      -0.00114500
O        5.08420995      10.95912951      10.11288621       0.00000000       0.00000000       0.00000000      -0.03259491       0.01656307      -0.00405787
O        5.37608960       2.88646045       9.79393287       0.00000000       0.00000000       0.00000000      -0.01941148       0.00790136      -0.00025567
O       13.03569888      14.76075210       9.82624861       0.00000000       0.00000000       0.00000000      -0.01442615      -0.00230334       0.00565991
O       17.82509225      10.66855017      10.08237545       0.00000000       0.00000000       0.00000000       0.00738324       0.00267271      -0.00751175
O       13.20055413      10.42525203      10.05407710       0.00000000       0.00000000       0.00000000       0.01031730       0.00974539      -0.00002985
O       18.11307648       7.03024780      10.02403778       0.00000000       0.00000000       0.00000000       0.00612212      -0.00794542      -0.01140112
O        0.28327944       7.04966441      10.00259977       0.00000000       0.00000000       0.00000000      -0.01423342      -0.00508903       0.00447379
O       13.01334424       2.78245911       9.96292347       0.00000000       0.00000000       0.00000000       0.00208761       0.00247341      -0.00786927
O        0.17217514       2.39099282      10.09027578       0.00000000       0.00000000       0.00000000      -0.00377195       0.01148216      -0.00538462
O        0.13668280      14.99856216      10.16275689       0.00000000       0.00000000       0.00000000       0.00608843      -0.00967155       0.01070527
O       10.41281415      14.96702534      10.32206132       0.00000000       0.00000000       0.00000000       0.00336745       0.00966952      -0.00806502
O       18.03553199       2.56714603      10.31673926       0.00000000       0.00000000       0.00000000       0.00376657       0.01138342      -0.00510683
O       17.97737209      14.82034232      10.40576696       0.00000000       0.00000000       0.00000000       0.00334649       0.00610839      -0.00288955
O       20.48230379      10.41460681      10.29273556       0.00000000       0.00000000       0.00000000      -0.00034839       0.00263576      -0.00534942
O       13.19119045       6.97131957      10.22547640       0.00000000       0.00000000       0.00000000       0.00986463       0.00131946       0.01703671
O        7.82153121      14.35121768      10.42920219       0.00000000       0.00000000       0.00000000       0.00173679       0.00836537       0.00608301
O       10.55969336      10.41265889      10.57994946       0.00000000       0.00000000       0.00000000      -0.02572175       0.01267231       0.01160104
O        2.84367696       2.26673312      10.40570143       0.00000000       0.00000000       0.00000000      -0.01316204      -0.00144001       0.00478975
O        2.85083331       6.86187812      10.67518592       0.00000000       0.00000000       0.00000000      -0.01192833       0.00033759       0.00705787
O       10.30535467       6.69177470      10.27422540       0.00000000       0.00000000       0.00000000       0.02889068       0.01185960      -0.03189833
O        2.79940694      14.97110557      10.62616235       0.00000000       0.00000000       0.00000000      -0.00446878       0.00062387      -0.00671225
O        2.51860758      10.99271093      10.76481180       0.00000000       0.00000000       0.00000000       0.00234609       0.01419881      -0.01771380
O        7.82572566       2.41937474      10.66441197       0.00000000       0.00000000       0.00000000       0.02517009       0.00181086       0.00670701
O        7.89740667      10.79908954      10.80020446       0.00000000       0.00000000       0.00000000       0.01082812       0.00437253       0.01098767
O       10.51060983       2.45000963      10.80920014       0.00000000       0.00000000       0.00000000       0.01867906       0.00645596      -0.00686594
O        7.68100305       6.73658738      10.84039658       0.00000000       0.00000000       0.00000000      -0.00614317      -0.00147111      -0.01537013
O       15.37053544      14.72625221      11.00483321       0.00000000       0.00000000       0.00000000      -0.00925320      -0.01127237       0.00414431
O       15.44993970       2.70751628      10.92433802       0.00000000       0.00000000       0.00000000       0.01122722       0.00275876       0.00399644
O       15.51618137      10.84918270      11.29880350       0.00000000       0.00000000       0.00000000       0.00085076       0.01530093       0.01163156
O       15.71117067       6.51119526      11.02740840       0.00000000       0.00000000       0.00000000       0.00036410       0.01236773       0.00635493
O       13.60513444      12.69850151      11.45063434       0.00000000       0.00000000       0.00000000      -0.00523723       0.01435223      -0.00023305
O        9.13378906       4.62523267      11.56270077       0.00000000       0.00000000       0.00000000       0.00869177      -0.03440878       0.00328333
O        9.66297895      12.71419541      11.53853843       0.00000000       0.00000000       0.00000000      -0.00110567      -0.01038289      -0.00534313
O       13.79747311       4.73990146      11.63569234       0.00000000       0.00000000       0.00000000      -0.00156548      -0.01294446      -0.00290807
O       17.06156620       8.71847556      11.81000050       0.00000000       0.00000000       0.00000000      -0.00411800       0.00398541      -0.00340358
O        1.35431129       8.76050285      11.80045386       0.00000000       0.00000000       0.00000000      -0.01155287       0.00259946       0.00073765
O        1.26651953       0.87987539      11.99817513       0.00000000       0.00000000       0.00000000       0.00579371       0.00186859      -0.00429004
O        1.21615868      16.51625408      12.04872159       0.00000000       0.00000000       0.00000000      -0.00648778       0.00259020      -0.00594957
O       16.97941987      16.34140467      12.37776875       0.00000000       0.00000000       0.00000000      -0.00907323      -0.00167940      -0.00868979
O        1.36663278       3.59158678      12.18172107       0.00000000       0.00000000       0.00000000       0.00469868       0.00979822      -0.00193013
O       17.01598806       1.07720883      12.32354391       0.00000000       0.00000000       0.00000000       0.00345831       0.00686827      -0.00149995
O        1.14871612      13.82152896      12.36972793       0.00000000       0.00000000       0.00000000       0.01304757       0.01637344      -0.01089499
O        0.96458704       6.22934457      12.49462613       0.00000000       0.00000000       0.00000000       0.00056904       0.00496850       0.00178728
O       13.11122296      15.08158630      12.48224056       0.00000000       0.00000000       0.00000000      -0.00522882      -0.00214816      -0.02223284
O       17.20989345       3.73824035      12.62634100       0.00000000       0.00000000       0.00000000      -0.00819023      -0.00925009      -0.00686992
O        9.13906742      15.10313024      12.64240515       0.00000000       0.00000000       0.00000000       0.00646450      -0.01487069       0.01116313
O       17.09928126      13.67848122      12.69715184       0.00000000       0.00000000       0.00000000       0.00203091       0.00476529       0.00122359
O       17.78330598      11.07794702      12.74390450       0.00000000       0.00000000       0.00000000       0.00061306       0.00739194       0.00549516
O       13.27126856      10.35069790      12.69507881       0.00000000       0.00000000       0.00000000       0.00249488      -0.00084656       0.01252181
O       17.90810384       6.34402329      12.60887741       0.00000000       0.00000000       0.00000000      -0.00276772      -0.00185098       0.00419892