299
Lattice="20.531 0.0 0.0 0.0 20.3034 0.0 0.0 0.0 13.6297" Properties=species:S:1:pos:R:3:momenta:R:3:forces:R:3 energy=-105975.75705447442 free_energy=-105975.75705447442 stress="0.004959613838661751 0.0005083688559837459 -0.0004968469567996332 0.0005083688559837459 0.0063455661804149585 -0.0006640122737958755 -0.0004968469567996332 -0.0006640122737958755 0.005581196517856466" magmom=1.0 pbc="T T T"
H       14.50853008      10.07973864       4.68664649       0.00000000       0.00000000       0.00000000       0.00312747      -0.00975316       0.01409041
H        8.86367074       9.68337602       5.07533554       0.00000000       0.00000000       0.00000000       0.00508952       0.01908454      -0.01095657
H       13.58016333      11.02609901       6.01470510       0.00000000       0.00000000       0.00000000       0.00040652      -0.01423115      -0.00400860
H       13.06544835       8.71576601       5.93999399       0.00000000       0.00000000       0.00000000      -0.01813921      -0.03928933       0.00556982
H       15.13616762      10.06962729       6.45595000       0.00000000       0.00000000       0.00000000      -0.01117241      -0.00953353      -0.00039945
H       12.55398718       7.32077703       6.51444644       0.00000000       0.00000000       0.00000000       0.00828818      -0.03329217       0.03407297
C       14.35892242      10.31972289       5.73751080       0.00000000       0.00000000       0.00000000      -0.00401365      -0.01756859      -0.00548804
O       11.54850622       6.73368992       0.63933680       0.00000000       0.00000000       0.00000000      -0.00746337       0.00827603      -0.01788942
O       11.22497809      15.21066763       0.65082777       0.00000000       0.00000000       0.00000000      -0.00577796      -0.00170776       0.01781940
O       11.35685796       2.80691624       0.70565057       0.00000000       0.00000000       0.00000000      -0.00176147       0.00078856       0.00699577
O       11.44273711      10.84206081       0.85030777       0.00000000       0.00000000       0.00000000       0.01176765      -0.00320833       0.00146734
O        1.48594330       4.67422229       0.97497460       0.00000000       0.00000000       0.00000000       0.00354133       0.00973033      -0.01212633
O        1.20437229       0.67821137       1.01398793       0.00000000       0.00000000       0.00000000      -0.02066594       0.00004746      -0.01231524
O        1.19542842      16.73518862       1.03533615       0.00000000       0.00000000       0.00000000      -0.01017498       0.00592978      -0.02215740
O       13.18333807       8.80284989       1.24305644       0.00000000       0.00000000       0.00000000      -0.00708473      -0.00210916      -0.00088677
O       13.46450519      16.63950854       0.99049506       0.00000000       0.00000000       0.00000000       0.00728270      -0.00753363      -0.01674784
O        9.79840865       8.72825117       1.17934250       0.00000000       0.00000000       0.00000000       0.01470397      -0.00793164      -0.00227698
O       17.21186296      17.25926467       1.23369001       0.00000000       0.00000000       0.00000000      -0.00264625      -0.00472176       0.00684536
O        9.08140608      13.66855093       1.04942860       0.00000000       0.00000000       0.00000000       0.00388791       0.00711686      -0.00063423
O       17.34423124       0.17418546       1.24322793       0.00000000       0.00000000       0.00000000       0.00468199       0.00702544      -0.01812939
O        1.35991563      12.81595213       1.24641090       0.00000000       0.00000000       0.00000000       0.00411935       0.00259602      -0.00316566
O        8.89224148      16.34963476       1.26683566       0.00000000       0.00000000       0.00000000      -0.00540034      -0.00549630       0.00492576
O       17.13858578      12.38213233       1.32932187       0.00000000       0.00000000       0.00000000       0.01020217       0.00085152      -0.01284817
O       17.53952975       5.12631487       1.30779202       0.00000000       0.00000000       0.00000000      -0.00099284       0.00567269       0.00982117
O       13.50997506      13.96627956       1.20828667       0.00000000       0.00000000       0.00000000       0.00054761      -0.00489293      -0.01137480
O       13.77049460       3.73550611       1.29546140       0.00000000       0.00000000       0.00000000      -0.00459835       0.01220393       0.00731832
O       13.28319286       1.07378052       1.40066519       0.00000000       0.00000000       0.00000000      -0.00772136      -0.01251904       0.00529440
O       13.96106094      11.34118131       1.48149954       0.00000000       0.00000000       0.00000000       0.00490417      -0.00352970      -0.00323472
O        9.58628813       0.96476108       1.58381692       0.00000000       0.00000000       0.00000000      -0.00477467      -0.02511645       0.00805103
O        9.09110118       3.56003014       1.91806669       0.00000000       0.00000000       0.00000000      -0.00186359       0.01556401      -0.00773652
O        9.04879539      11.14643713       1.90834813       0.00000000       0.00000000       0.00000000      -0.01620001      -0.00584664      -0.00213007
O       13.83496061       6.34408461       1.95868633       0.00000000       0.00000000       0.00000000      -0.00348213      -0.00190956      -0.00238687
O        9.21805315       6.26592161       1.90211019       0.00000000       0.00000000       0.00000000       0.01134885       0.01590967      -0.02375533
O       14.04136659      18.95095226       2.14699650       0.00000000       0.00000000       0.00000000      -0.00210672      -0.01372108      -0.01526032
O       17.13273511       2.64912692       2.14006151       0.00000000       0.00000000       0.00000000      -0.00311564       0.00800757       0.00738221
O        9.07605638      18.78199668       2.26057323       0.00000000       0.00000000       0.00000000      -0.00453385      -0.02168506      -0.01037056
O       17.12933357      14.84740483       2.37617310       0.00000000       0.00000000       0.00000000       0.00383448       0.00583322      -0.00597471
O        1.37716975       2.66225253       2.81142398       0.00000000       0.00000000       0.00000000       0.00728582      -0.00385571      -0.00147537
O        1.26365868      14.89193222       3.00406411       0.00000000       0.00000000       0.00000000       0.00540630      -0.00728023       0.01291514
O       15.26293486      16.69768273       2.99352254       0.00000000       0.00000000       0.00000000      -0.00555344       0.01689946       0.00356576
O       15.21061744      13.06697931       3.06788352       0.00000000       0.00000000       0.00000000      -0.00505523       0.00836117      -0.00200320
O       15.54379441       4.63931680       3.06887608       0.00000000       0.00000000       0.00000000      -0.01621247       0.01096697      -0.01410470
O       15.42136570       0.77167366       3.02903559       0.00000000       0.00000000       0.00000000      -0.02214464       0.00942927      -0.00147164
O        7.38094971      12.89311200       2.98889985       0.00000000       0.00000000       0.00000000       0.00555383       0.01044792      -0.01062468
O        2.72412386       0.36385018       3.12624371       0.00000000       0.00000000       0.00000000       0.01429019       0.00864767       0.01283893
O        2.54684143      17.22621878       3.24955073       0.00000000       0.00000000       0.00000000       0.00312494      -0.00374411       0.01112795
O       20.51758905       4.90162649       3.16338908       0.00000000       0.00000000       0.00000000       0.00023652       0.00958071       0.01664937
O        2.67864666       4.95247293       3.30357381       0.00000000       0.00000000       0.00000000       0.00367749       0.01769685       0.00718359
O        7.38558182      17.03138270       3.36848358       0.00000000       0.00000000       0.00000000       0.01442615      -0.01371927       0.00104091
O       20.37300064      17.13934691       3.28575006       0.00000000       0.00000000       0.00000000      -0.01719361       0.00405152       0.00856784
O        0.04684653       0.43613739       3.41827714       0.00000000       0.00000000       0.00000000      -0.01395345      -0.01587748       0.01045328
O       20.28351688      12.71414165       3.36513332       0.00000000       0.00000000       0.00000000       0.00416205      -0.00110965       0.00929616
O       12.60479058      12.63322460       3.39742080       0.00000000       0.00000000       0.00000000       0.01920047      -0.01173499      -0.01189428
O        9.96129044      13.11881386       3.54086096       0.00000000       0.00000000       0.00000000       0.00273535      -0.00176579      -0.01320656
O        7.67323133       4.99882880       3.62904863       0.00000000       0.00000000       0.00000000       0.00797413       0.01675685       0.00077649
O        2.42498481      12.59033059       3.68052834       0.00000000       0.00000000       0.00000000      -0.00421511       0.00218663       0.01200527
O        7.70028223       0.44372764       3.45290781       0.00000000       0.00000000       0.00000000      -0.00508032      -0.01017799      -0.01155764
O       10.00606350      16.67871823       3.69673741       0.00000000       0.00000000       0.00000000       0.00461916       0.02471648      -0.00246501
O       12.67342277      17.09792043       3.50934788       0.00000000       0.00000000       0.00000000       0.00515032      -0.00065354      -0.02008142
O       17.75880978      17.00813488       3.84817336       0.00000000       0.00000000       0.00000000       0.00048588       0.00017921       0.00044514
O       17.94615392       0.70654513       3.81509033       0.00000000       0.00000000       0.00000000      -0.00387129       0.00133867       0.02251758
O       13.01243535       4.54273251       3.77636245       0.00000000       0.00000000       0.00000000       0.00469702      -0.00110302      -0.00093096
O       17.66649529      12.71550150       3.93915053       0.00000000       0.00000000       0.00000000      -0.00939394      -0.00008240      -0.00139113
O       17.99621058       4.48235291       3.90637702       0.00000000       0.00000000       0.00000000      -0.00964196      -0.00099698      -0.01822068
O       10.35062249       4.90965310       3.88897365       0.00000000       0.00000000       0.00000000       0.01303733      -0.01039715       0.00143159
O       10.29328242       0.03404664       4.03074750       0.00000000       0.00000000       0.00000000       0.00783668       0.00544002       0.00837433
O       12.98528806       0.31850389       3.96845010       0.00000000       0.00000000       0.00000000      -0.00194407      -0.00160880       0.01630745
O        5.14800007       0.84241793       4.09397315       0.00000000       0.00000000       0.00000000      -0.00142744       0.00256336      -0.01343300
O        5.03980932      12.87763676       4.15848860       0.00000000       0.00000000       0.00000000       0.00888647       0.00044862       0.00779747
O        5.12134003       4.49468292       4.19953776       0.00000000       0.00000000       0.00000000       0.00194942       0.00437772       0.00348311
O        4.93802041      16.60432902       4.27601148       0.00000000       0.00000000       0.00000000       0.02378768       0.00055076       0.00100036
O       11.37109713       2.46354425       4.12846796       0.00000000       0.00000000       0.00000000      -0.00803221       0.00436119      -0.01253345
O       11.70915378      14.85477452       4.60722304       0.00000000       0.00000000       0.00000000       0.00136127       0.01252388       0.00244897
O        7.01894501       2.65380744       4.78085396       0.00000000       0.00000000       0.00000000       0.00172981      -0.01007375      -0.00993803
O        6.84707489      14.81241854       4.80710627       0.00000000       0.00000000       0.00000000       0.00665943       0.00502312      -0.00891993
O        3.79895895      18.94631250       4.88505957       0.00000000       0.00000000       0.00000000       0.00611675       0.00165430       0.00624177
O       19.26954711      18.95048832       4.91884964       0.00000000       0.00000000       0.00000000      -0.00275320      -0.00916372      -0.00031117
O       19.44523182       6.31679009       5.16012850       0.00000000       0.00000000       0.00000000      -0.01331363       0.00031809       0.00312775
O       19.26219629      11.12329890       5.28800418       0.00000000       0.00000000       0.00000000      -0.00583113       0.00169265      -0.00617980
O        3.59097937       6.32416679       5.42842634       0.00000000       0.00000000       0.00000000       0.00030116       0.01340819      -0.00409487
O        8.82030524       8.84701265       5.58024483       0.00000000       0.00000000       0.00000000      -0.02651497      -0.01552436       0.00249235
O       19.98657111       3.72109035       5.52732662       0.00000000       0.00000000       0.00000000       0.01199334      -0.00530975      -0.00992801
O        3.57995959      11.36366467       5.77880335       0.00000000       0.00000000       0.00000000       0.01166752       0.00168227       0.00337507
O       19.38011641      13.77597593       5.67173974       0.00000000       0.00000000       0.00000000      -0.00309059       0.00899283       0.00706887
O        2.98047369       3.72394147       5.65658908       0.00000000       0.00000000       0.00000000       0.00076376      -0.00019114      -0.00548806
O        7.26801775      12.32079688       5.60449131       0.00000000       0.00000000       0.00000000       0.00935533       0.01052315      -0.00147416
O        3.30774362      14.04953904       5.78062060       0.00000000       0.00000000       0.00000000      -0.00258522      -0.00304309       0.00552460
O       11.33432649      12.43728221       5.71615406       0.00000000       0.00000000       0.00000000       0.00185996      -0.00008868       0.00407113
O        2.98642775       1.02457656       5.70446358       0.00000000       0.00000000       0.00000000       0.01668878      -0.02003546      -0.00131477
O       19.54267189      16.46177789       5.77481678       0.00000000       0.00000000       0.00000000      -0.00383983      -0.01030656       0.00679765
O       19.61760567       1.08851049       5.87135007       0.00000000       0.00000000       0.00000000       0.00544728      -0.00171281      -0.01268516
O        2.76575206      16.68625095       5.86597086       0.00000000       0.00000000       0.00000000       0.00571494      -0.00622647       0.00573906
O       11.51037668      17.21861766       5.85238462       0.00000000       0.00000000       0.00000000       0.01172373       0.00690989      -0.00579533
O        6.92473807      17.18866971       6.00672018       0.00000000       0.00000000       0.00000000      -0.00752790       0.00030374       0.00360020
O       12.33873715       8.04325157       5.88278802       0.00000000       0.00000000       0.00000000       0.01592904       0.04575969      -0.02092368
O        2.86465576       8.80248629       6.08638740       0.00000000       0.00000000       0.00000000      -0.00044663      -0.01179476      -0.00797986
O        6.83324449       4.91472637       6.17831777       0.00000000       0.00000000       0.00000000      -0.00486632       0.00408277      -0.00584537
O        6.89286128       0.27968906       6.02104343       0.00000000       0.00000000       0.00000000      -0.00178617      -0.01416525       0.02441139
O       11.74979228       4.28462280       6.09004895       0.00000000       0.00000000       0.00000000      -0.00391269      -0.01221229      -0.00184608
O       19.95122612       8.70794466       6.11125450       0.00000000       0.00000000       0.00000000       0.00200318       0.00967599       0.01237540
O       11.64261959       0.76530446       6.21212584       0.00000000       0.00000000       0.00000000       0.00381156       0.01377413       0.00481472
O        1.08588162      10.80182569       6.49230271       0.00000000       0.00000000       0.00000000      -0.00273467      -0.00455142       0.00514287
O        1.18553653       6.71555524       6.54239114       0.00000000       0.00000000       0.00000000       0.01764070       0.00274529       0.00207053
O        0.97720928      14.90632155       6.77113452       0.00000000       0.00000000       0.00000000      -0.01630455      -0.00115692      -0.01142592
O        1.14441777       2.38191096       7.06994015       0.00000000       0.00000000       0.00000000      -0.01515267      -0.00383050      -0.00576019
O        9.38022403       5.06930553       7.00897473       0.00000000       0.00000000       0.00000000       0.01600961       0.00951423      -0.00435935
O        9.27530017      16.88790367       7.28506561       0.00000000       0.00000000       0.00000000       0.00342088       0.01420174      -0.00406121
O        9.19825279       0.67445518       7.30096339       0.00000000       0.00000000       0.00000000      -0.01284469      -0.00845392      -0.00873367
O        9.23292084      12.47812160       7.41489338       0.00000000       0.00000000       0.00000000      -0.02313043      -0.00572300      -0.00167980
O       10.92312311      18.97718043       7.76652499       0.00000000       0.00000000       0.00000000      -0.00018650       0.00235492      -0.00933618
O       19.35477531       6.66238465       7.79065074       0.00000000       0.00000000       0.00000000      -0.00930413      -0.00688644       0.02627024
O       19.33574897      10.57282478       7.90500271       0.00000000       0.00000000       0.00000000      -0.00493175       0.01449816       0.04354401
O        7.58156929      18.88423926       7.95986459       0.00000000       0.00000000       0.00000000      -0.00186112       0.02099636      -0.00950963
O        7.03378609      11.03668417       7.91225666       0.00000000       0.00000000       0.00000000       0.00133401      -0.00043819      -0.01826092
O        3.70236180       2.39212796       7.85569827       0.00000000       0.00000000       0.00000000      -0.00586798       0.00600264       0.01384029
O        3.39320965       7.04258258       8.01170504       0.00000000       0.00000000       0.00000000       0.00792753      -0.01119587       0.00081536
O       19.18859330       2.76118421       7.92485724       0.00000000       0.00000000       0.00000000      -0.01979558       0.00025587       0.01397409
O       19.13311224      15.04021321       7.99530080       0.00000000       0.00000000       0.00000000      -0.01320534       0.00801570       0.00026250
O       11.36917758      14.02192884       7.86369129       0.00000000       0.00000000       0.00000000      -0.01221517      -0.01483131      -0.01136081
O        6.92156263      13.74739065       7.87020849       0.00000000       0.00000000       0.00000000       0.00602567       0.00190449      -0.00917922
O       11.69082405       6.16169509       7.97602205       0.00000000       0.00000000       0.00000000      -0.00159977      -0.00270939      -0.02843195
O        3.25344366      15.35487811       8.10661116       0.00000000       0.00000000       0.00000000       0.00781410       0.00590138       0.01354035
O       11.53955131      11.35718004       8.12059014       0.00000000       0.00000000       0.00000000       0.00677102      -0.01484071       0.02129847
O        3.07993827      10.34170047       8.23905636       0.00000000       0.00000000       0.00000000       0.00156820       0.01712295       0.02724319
O        7.43742926       6.39741942       8.24499351       0.00000000       0.00000000       0.00000000      -0.00274273      -0.02302386      -0.00215045
O        7.55731546       3.70242011       8.46174948       0.00000000       0.00000000       0.00000000       0.00659818       0.00059274      -0.00740790
O        7.00866452      16.33874913       8.56768730       0.00000000       0.00000000       0.00000000      -0.00572041       0.01433980       0.00207652
O       11.69068108      16.56762239       8.45454088       0.00000000       0.00000000       0.00000000      -0.01231646       0.02477698      -0.00863652
O       10.94590931       3.64187203       8.58542839       0.00000000       0.00000000       0.00000000       0.01343012      -0.01651906      -0.00531242
O        6.88979836       1.08933690       8.58878446       0.00000000       0.00000000       0.00000000       0.01355840      -0.00133704      -0.01996139
O       11.53972728       8.78936047       8.73739250       0.00000000       0.00000000       0.00000000      -0.00672187      -0.02512191      -0.02672346
O       11.38131875       1.01651397       8.85285785       0.00000000       0.00000000       0.00000000      -0.00327843      -0.00097914       0.00732440
O        3.39017836      12.85485755       9.02151340       0.00000000       0.00000000       0.00000000       0.00082266      -0.02664187       0.01447160
O        6.76337236       8.69769296       9.14653564       0.00000000       0.00000000       0.00000000      -0.00095352      -0.01038272       0.00861191
O        3.40786682       4.66284750       9.23808133       0.00000000       0.00000000       0.00000000      -0.01307700       0.01095647       0.00359834
O       19.33154387      12.76117351       9.44232839       0.00000000       0.00000000       0.00000000      -0.00577385      -0.01654375       0.00768989
O       19.49625869       4.77000875       9.72230269       0.00000000       0.00000000       0.00000000      -0.01302905       0.00355181       0.00404630
O        5.25772083      14.68535342       9.74605654       0.00000000       0.00000000       0.00000000      -0.02121105       0.00503220       0.00641107
O        5.24790473       6.52766562       9.84010171       0.00000000       0.00000000       0.00000000       0.00411750       0.00603716       0.00973490
O        5.03667121      10.92992156      10.00431757       0.00000000       0.00000000       0.00000000       0.01566411      -0.00597688       0.01637239
O        5.37771366       2.91447457       9.84322272       0.00000000       0.00000000       0.00000000       0.00924736      -0.01125817      -0.00736704
O       13.06773183      14.72869534       9.80914303       0.00000000       0.00000000       0.00000000       0.00022982      -0.00791776       0.02046137
O       17.81052127      10.62567645      10.03741386       0.00000000       0.00000000       0.00000000       0.01095485       0.00094718      -0.00723663
O       13.16233615      10.50553713      10.03811581       0.00000000       0.00000000       0.00000000       0.01868664      -0.00532283      -0.00044644
O       18.02616951       7.00947523      10.02718965       0.00000000       0.00000000       0.00000000      -0.00271225      -0.00372484       0.00153048
O        0.18997631       7.11171333      10.04022893       0.00000000       0.00000000       0.00000000      -0.03103339      -0.00063096      -0.01449121
O       13.00634451       2.73134608      10.07006489       0.00000000       0.00000000       0.00000000       0.00463210      -0.01083833       0.00046083
O        0.16088705       2.41442057      10.10064884       0.00000000       0.00000000       0.00000000      -0.03754034       0.00566964      -0.01700531
O        0.18810839      14.91690201      10.12139205       0.00000000       0.00000000       0.00000000       0.00493547       0.00160128      -0.00063509
O       10.41950126      14.99584136      10.19621425       0.00000000       0.00000000       0.00000000      -0.02652387       0.00886113       0.02123590
O       18.03201949       2.61473255      10.33621721       0.00000000       0.00000000       0.00000000      -0.00404859       0.00577063      -0.00654085
O       18.02552542      14.89516485      10.39388357       0.00000000       0.00000000       0.00000000       0.00899570      -0.00326681      -0.02276231
O       20.46254743      10.50683608      10.33311888       0.00000000       0.00000000       0.00000000      -0.03359454       0.01218815      -0.00685504
O       13.11051626       7.03405328      10.41058731       0.00000000       0.00000000       0.00000000      -0.00952038       0.00457551      -0.02167576
O        7.81335781      14.43969562      10.32382233       0.00000000       0.00000000       0.00000000       0.00606711      -0.00109758       0.01369580
O       10.51661245      10.51537187      10.52527919       0.00000000       0.00000000       0.00000000      -0.00868781      -0.00337119       0.00778683
O        2.83199247       2.31694307      10.40519218       0.00000000       0.00000000       0.00000000       0.01308550      -0.01194336      -0.00245878
O        2.77057142       6.86441944      10.63543126       0.00000000       0.00000000       0.00000000       0.02087521      -0.00468641      -0.02456384
O       10.22805309       6.80096339      10.39763332       0.00000000       0.00000000       0.00000000       0.00612258      -0.01640608      -0.00838028
O        2.80602891      14.87956403      10.71296719       0.00000000       0.00000000       0.00000000      -0.00177099       0.01358114       0.01256136
O        2.50928321      11.01848782      10.77339173       0.00000000       0.00000000       0.00000000       0.02071159       0.01495472      -0.01687968
O        7.81095932       2.38421572      10.75853158       0.00000000       0.00000000       0.00000000       0.00106665       0.00911883      -0.01668310
O        7.85173840      10.92336080      10.68940830       0.00000000       0.00000000       0.00000000       0.03022069       0.01389469       0.03128805
O       10.50236504       2.45506682      10.93581264       0.00000000       0.00000000       0.00000000       0.00424107       0.00606368      -0.01293919
O        7.60150872       6.80028558      10.93608405       0.00000000       0.00000000       0.00000000       0.00592703       0.01210328       0.00129810
O       15.42026606      14.66438967      10.96145376       0.00000000       0.00000000       0.00000000      -0.01351014       0.01463758       0.00943645
O       15.45705562       2.75898069      10.94464545       0.00000000       0.00000000       0.00000000      -0.00523246      -0.00304392       0.00386738
O       15.50886784      10.91574568      11.22690479       0.00000000       0.00000000       0.00000000       0.01344587       0.00010142      -0.02217099
O       15.65282888       6.51396084      11.07160637       0.00000000       0.00000000       0.00000000       0.01995746      -0.00747841       0.01072196
O       13.58381944      12.72374308      11.52027443       0.00000000       0.00000000       0.00000000       0.01601871      -0.01707707       0.00433736
O        9.06576710       4.64696763      11.50059446       0.00000000       0.00000000       0.00000000       0.00893515       0.02857659       0.01150752
O        9.62184829      12.80219087      11.48660570       0.00000000       0.00000000       0.00000000       0.00303065      -0.01239532      -0.01194857
O       13.74754725       4.74492405      11.69246975       0.00000000       0.00000000       0.00000000      -0.00175781      -0.01475762      -0.00105197
O        1.33423813       8.79102239      11.79394888       0.00000000       0.00000000       0.00000000       0.00635852       0.02390297       0.01290165
O       16.99547000       8.74066783      11.79482420       0.00000000       0.00000000       0.00000000       0.00160085       0.01229928       0.01137891
O        1.26949693       0.92262670      12.01175211       0.00000000       0.00000000       0.00000000      -0.00232220      -0.01723786       0.00476441
O        1.17324042      16.49404232      12.03111447       0.00000000       0.00000000       0.00000000       0.00411056       0.00118230       0.01487877
O       16.95018050      16.38236770      12.33587849       0.00000000       0.00000000       0.00000000      -0.00286502      -0.00315968      -0.00068301
O        1.35276800       3.63766047      12.17587782       0.00000000       0.00000000       0.00000000      -0.01305374       0.00568766       0.00372204
O       17.01835432       1.10821528      12.33496711       0.00000000       0.00000000       0.00000000      -0.00693445       0.02163082      -0.00285587
O        1.04543938      13.82629389      12.42289940       0.00000000       0.00000000       0.00000000       0.00408563       0.02573790      -0.00683266
O        0.94889694       6.27126040      12.51563732       0.00000000       0.00000000       0.00000000      -0.00889595       0.00116140      -0.00182783
O       13.20048421      15.16400110      12.44951637       0.00000000       0.00000000       0.00000000      -0.01001182       0.02134518       0.02741454
O       17.20715463       3.76608329      12.65926974       0.00000000       0.00000000       0.00000000      -0.02356859       0.00060741      -0.01081549
O        9.15628330      15.22118542      12.51663319       0.00000000       0.00000000       0.00000000      -0.01381096       0.01696567       0.01363323
O       17.19305739      13.74268829      12.68927234       0.00000000       0.00000000       0.00000000       0.00849642      -0.03112499      -0.00117279
O       17.76050253      11.10878341      12.69258757       0.00000000       0.00000000       0.00000000      -0.00525090      -0.01675300      -0.01599203
O       13.34008956      10.31678228      12.68084328       0.00000000       0.00000000       0.00000000       0.01259581      -0.00178204       0.01316074
O       17.87406764       6.38383081      12.62950742       0.00000000       0.00000000       0.00000000      -0.01465035       0.00605383       0.00120468