299
Lattice="20.531 0.0 0.0 0.0 20.3034 0.0 0.0 0.0 13.6297" Properties=species:S:1:pos:R:3:momenta:R:3:forces:R:3 energy=-105975.99869130056 free_energy=-105975.99869130056 stress="0.004790770014773642 0.000322342410627691 -0.0005387575034449036 0.000322342410627691 0.006680892664415042 -0.0005854518379076326 -0.0005387575034449036 -0.0005854518379076326 0.00531209580760848" magmom=1.0 pbc="T T T"
H       16.18168768       9.31266651       4.67780207       0.00000000       0.00000000       0.00000000      -0.00963943       0.00372575       0.01621022
H        9.05660086       9.39008257       4.95196118       0.00000000       0.00000000       0.00000000       0.00105750      -0.00357269       0.00022182
H       15.54523330      10.78852253       5.45950517       0.00000000       0.00000000       0.00000000       0.01283677      -0.01587432      -0.00376083
H       14.63813745       9.25403819       5.58747715       0.00000000       0.00000000       0.00000000       0.01852493       0.02504068      -0.00301231
H       12.51158877       7.67383756       6.46820336       0.00000000       0.00000000       0.00000000       0.01405102      -0.02493147       0.00382352
H       16.19109013       9.45363748       6.46131306       0.00000000       0.00000000       0.00000000      -0.01290869       0.00802453      -0.01351483
C       15.63921705       9.70037862       5.54688000       0.00000000       0.00000000       0.00000000      -0.00760375       0.00625038      -0.00028231
O       11.53754642       6.72319126       0.57108709       0.00000000       0.00000000       0.00000000      -0.03073557       0.00235933       0.00495730
O       11.23301350      15.16238577       0.64123952       0.00000000       0.00000000       0.00000000      -0.00645682       0.01767699      -0.01106930
O       11.36403951       2.76654518       0.71362340       0.00000000       0.00000000       0.00000000      -0.03026022       0.00979558      -0.01406637
O       11.45908067      10.83784495       0.77419376       0.00000000       0.00000000       0.00000000       0.01465438       0.01552994       0.00896433
O        1.47153040       4.68750505       0.98672221       0.00000000       0.00000000       0.00000000      -0.00516433      -0.00664565      -0.02754524
O        1.20229522       0.63086530       1.02437083       0.00000000       0.00000000       0.00000000       0.00441071       0.01063767       0.01819014
O        1.19542351      16.72612711       1.03634420       0.00000000       0.00000000       0.00000000      -0.00461507      -0.00129774       0.00627453
O       13.17145359       8.79058626       1.18593813       0.00000000       0.00000000       0.00000000      -0.00253215      -0.00604793       0.00316832
O       13.44995190      16.62415593       1.00873566       0.00000000       0.00000000       0.00000000       0.01170985       0.01366965      -0.00462713
O        9.82754492       8.72503324       1.20456860       0.00000000       0.00000000       0.00000000      -0.00001284      -0.03419194       0.00294963
O       17.21794150      17.26391153       1.24364067       0.00000000       0.00000000       0.00000000       0.00215677       0.01309281      -0.00220988
O        9.07382877      13.66295444       1.06939735       0.00000000       0.00000000       0.00000000       0.00789385      -0.01531783      -0.01277113
O       17.34878984       0.17068850       1.25384929       0.00000000       0.00000000       0.00000000      -0.00474511      -0.00177380      -0.01065263
O        1.36715473      12.82654833       1.25679207       0.00000000       0.00000000       0.00000000      -0.01768043      -0.00238161       0.00735873
O        8.92176998      16.35009340       1.26443731       0.00000000       0.00000000       0.00000000       0.00869411       0.00071950       0.00177814
O       17.16738402      12.35606252       1.33208316       0.00000000       0.00000000       0.00000000       0.01103195       0.01258223       0.00053543
O       17.54962313       5.13130925       1.32181305       0.00000000       0.00000000       0.00000000      -0.00172430      -0.01132195      -0.00982667
O       13.52280142      13.94727989       1.21447759       0.00000000       0.00000000       0.00000000       0.00246280      -0.00177995       0.01046750
O       13.75448814       3.74700260       1.31309938       0.00000000       0.00000000       0.00000000       0.00115633       0.00352514       0.00040162
O       13.31858159       1.07672672       1.41828909       0.00000000       0.00000000       0.00000000      -0.00936506       0.01041487      -0.00068090
O       13.98833163      11.32708948       1.39980374       0.00000000       0.00000000       0.00000000       0.00268447       0.00103230       0.01302761
O        9.57024132       0.95979321       1.61950711       0.00000000       0.00000000       0.00000000       0.01753738       0.02496964      -0.01214799
O        9.12862253       3.57183334       1.93258300       0.00000000       0.00000000       0.00000000      -0.01888829       0.02461826      -0.00921974
O        9.09203917      11.13670944       1.93794129       0.00000000       0.00000000       0.00000000      -0.00777593       0.00286538      -0.00463725
O       13.78429799       6.35136339       1.97774738       0.00000000       0.00000000       0.00000000      -0.02454093       0.01405972      -0.01792053
O        9.25758081       6.27868017       1.96591542       0.00000000       0.00000000       0.00000000       0.00475976       0.01053712      -0.00999378
O       14.07467885      18.95012002       2.12597222       0.00000000       0.00000000       0.00000000      -0.00621212       0.00318152       0.01031893
O       17.10561931       2.64999290       2.12357466       0.00000000       0.00000000       0.00000000      -0.00254077      -0.01568367       0.00594021
O        9.07987054      18.77173072       2.30088532       0.00000000       0.00000000       0.00000000      -0.01326450      -0.01006957      -0.00575285
O       17.10451110      14.83370066       2.32688298       0.00000000       0.00000000       0.00000000       0.00970148      -0.00104617       0.00290486
O        1.35045254       2.64344069       2.78970163       0.00000000       0.00000000       0.00000000       0.00002596      -0.01220677       0.00442414
O        1.21640961      14.89233281       3.02286097       0.00000000       0.00000000       0.00000000      -0.01196219      -0.03160814      -0.00567180
O       15.26758092      16.69480632       2.99930863       0.00000000       0.00000000       0.00000000       0.00788164       0.00432489      -0.00431858
O       15.21739810      13.02557681       3.05193371       0.00000000       0.00000000       0.00000000       0.00413684       0.00547804      -0.00166548
O       15.53969384       4.66107154       3.06277272       0.00000000       0.00000000       0.00000000      -0.01847547       0.00070123      -0.00211937
O       15.43816723       0.75980782       3.06158299       0.00000000       0.00000000       0.00000000      -0.00277701      -0.00058837       0.01081133
O        7.39504549      12.87151882       3.00430997       0.00000000       0.00000000       0.00000000       0.01631290       0.00125665      -0.00353886
O        2.74412192       0.37321748       3.12627934       0.00000000       0.00000000       0.00000000      -0.01130195       0.01287094      -0.00012607
O        2.55908969      17.19131786       3.24622755       0.00000000       0.00000000       0.00000000       0.00715448       0.00695366       0.01995626
O       20.51103639       4.89366012       3.17844284       0.00000000       0.00000000       0.00000000       0.00209976      -0.00834864      -0.00718555
O        2.66748956       4.91697585       3.32122509       0.00000000       0.00000000       0.00000000       0.02341345      -0.00027304       0.00015008
O        7.41102044      16.97753201       3.37266898       0.00000000       0.00000000       0.00000000       0.01601251       0.01432831       0.00135704
O       20.38066633      17.17266750       3.28486091       0.00000000       0.00000000       0.00000000      -0.01940362       0.00892640       0.01108026
O        0.07211703       0.38209389       3.43813819       0.00000000       0.00000000       0.00000000       0.00952158       0.02455369      -0.00386140
O       20.27770346      12.68812097       3.36483581       0.00000000       0.00000000       0.00000000       0.00268852       0.00149376       0.00424434
O       12.60353007      12.54657386       3.34740309       0.00000000       0.00000000       0.00000000       0.00087844      -0.00655735       0.01671676
O        9.97829688      13.11946803       3.55953882       0.00000000       0.00000000       0.00000000      -0.00217775      -0.01024957       0.00160933
O        7.67578988       4.99197523       3.63679481       0.00000000       0.00000000       0.00000000       0.00164949       0.00259285       0.00314794
O        2.41502360      12.60272335       3.69262413       0.00000000       0.00000000       0.00000000      -0.02260630       0.01952594      -0.00903536
O        7.70963012       0.43045110       3.50930722       0.00000000       0.00000000       0.00000000      -0.01138226      -0.00475339       0.01530703
O       10.03710907      16.65765828       3.70138028       0.00000000       0.00000000       0.00000000      -0.00083528      -0.01358286      -0.02325707
O       12.68341632      17.16002586       3.52344799       0.00000000       0.00000000       0.00000000       0.01679774      -0.03225043      -0.00883400
O       17.77013724      16.95217099       3.85355322       0.00000000       0.00000000       0.00000000       0.00686120      -0.00607514      -0.01059392
O       17.97288734       0.74277329       3.81545833       0.00000000       0.00000000       0.00000000       0.00683111       0.00128894       0.00036629
O       13.01517245       4.55585251       3.80559856       0.00000000       0.00000000       0.00000000       0.00465902      -0.00443175       0.00279599
O       17.67023754      12.75983666       3.94707864       0.00000000       0.00000000       0.00000000      -0.00729889       0.00306645       0.00860285
O       17.99064992       4.43923813       3.91043876       0.00000000       0.00000000       0.00000000       0.02433803       0.00345431       0.02455431
O       10.34718667       4.89162190       3.94970113       0.00000000       0.00000000       0.00000000      -0.00423259       0.01334897       0.00052178
O       10.30521052       0.03387260       4.05957089       0.00000000       0.00000000       0.00000000       0.00687963      -0.00465544      -0.00014115
O       12.99454185       0.29072495       3.97631074       0.00000000       0.00000000       0.00000000      -0.01194214       0.02034046      -0.00613080
O        5.15403169       0.84443537       4.11534928       0.00000000       0.00000000       0.00000000       0.00454531       0.00322755      -0.00400740
O        5.02942275      12.88019965       4.13176395       0.00000000       0.00000000       0.00000000      -0.01166614       0.00488611       0.00239871
O        5.12101439       4.48647937       4.19596394       0.00000000       0.00000000       0.00000000       0.00112001      -0.00705601       0.01302746
O        4.95157964      16.58106033       4.26277531       0.00000000       0.00000000       0.00000000      -0.00934022       0.00367523      -0.01042795
O       11.40222480       2.45879345       4.13915206       0.00000000       0.00000000       0.00000000       0.00396499       0.00374874       0.02030975
O       11.81065676      14.82657171       4.50463285       0.00000000       0.00000000       0.00000000      -0.01061671      -0.01110838      -0.00000849
O        7.02401091       2.65519166       4.81060679       0.00000000       0.00000000       0.00000000      -0.01943103       0.00437229      -0.00338488
O        6.85313188      14.78372214       4.83166565       0.00000000       0.00000000       0.00000000      -0.00931117       0.03344407       0.00776261
O        3.81271138      18.92879724       4.86659571       0.00000000       0.00000000       0.00000000      -0.00091392       0.00515072       0.00690261
O       19.22961140      18.94088836       4.92865448       0.00000000       0.00000000       0.00000000       0.00996341      -0.00727570      -0.03351457
O       19.41563915       6.30095448       5.16077117       0.00000000       0.00000000       0.00000000       0.01665248       0.00324770       0.00292440
O       19.23113136      11.11616564       5.28960884       0.00000000       0.00000000       0.00000000       0.00628230      -0.00806584       0.01247789
O        3.58752105       6.30793244       5.42560586       0.00000000       0.00000000       0.00000000       0.00830253      -0.01942474      -0.00245418
O        8.97811853       8.62499369       5.55953177       0.00000000       0.00000000       0.00000000       0.02091729       0.00696439      -0.03411402
O       19.98857651       3.71211564       5.54012116       0.00000000       0.00000000       0.00000000       0.00169754      -0.00857620       0.00533513
O        3.59210315      11.34443375       5.75726718       0.00000000       0.00000000       0.00000000       0.00919269      -0.02474065       0.01464323
O       19.41322733      13.76289497       5.68090253       0.00000000       0.00000000       0.00000000       0.00062373       0.00138275      -0.00646571
O        3.00414770       3.70123230       5.68319218       0.00000000       0.00000000       0.00000000       0.01111096      -0.01800531       0.01021145
O        7.20581538      12.27865236       5.61391443       0.00000000       0.00000000       0.00000000      -0.02052406      -0.00107900      -0.00297626
O        3.32459200      14.02906682       5.80587538       0.00000000       0.00000000       0.00000000       0.00848563      -0.00527616      -0.00982946
O       11.38624028      12.44982758       5.71173579       0.00000000       0.00000000       0.00000000       0.00405337      -0.01305949       0.00033339
O        2.98538715       0.99798745       5.71622115       0.00000000       0.00000000       0.00000000      -0.00112626       0.02562772       0.03389772
O       19.57246379      16.45289247       5.77064007       0.00000000       0.00000000       0.00000000       0.00531755       0.00580167      -0.00421805
O       19.64307972       1.07365899       5.87542316       0.00000000       0.00000000       0.00000000      -0.00473437       0.01304995       0.01847538
O        2.79171564      16.67092773       5.86714061       0.00000000       0.00000000       0.00000000       0.01090959       0.00980045       0.00624986
O       11.53649522      17.11154383       5.87249925       0.00000000       0.00000000       0.00000000       0.00928829       0.00784364       0.02021105
O        6.90892603      17.18245448       6.00293275       0.00000000       0.00000000       0.00000000       0.01088843      -0.00571954       0.02662493
O       12.11679263       8.45525216       6.02325682       0.00000000       0.00000000       0.00000000       0.02195456      -0.00481267      -0.03325588
O        2.86521377       8.78497322       6.07865725       0.00000000       0.00000000       0.00000000       0.00766594      -0.01573736      -0.01021716
O        6.81957257       4.93896959       6.17883558       0.00000000       0.00000000       0.00000000      -0.00561625      -0.03029958      -0.03210582
O        6.86246388       0.28946339       6.07306513       0.00000000       0.00000000       0.00000000      -0.00702038       0.01310755      -0.01915830
O       11.77669578       4.27036809       6.12914739       0.00000000       0.00000000       0.00000000      -0.00000445      -0.00412818      -0.01689983
O       19.93307211       8.69296758       6.10009457       0.00000000       0.00000000       0.00000000       0.00599521       0.00420847       0.00174705
O       11.66045980       0.77227145       6.23127619       0.00000000       0.00000000       0.00000000      -0.00840188       0.02305014      -0.00232526
O        1.08085878      10.78772099       6.40684851       0.00000000       0.00000000       0.00000000       0.00602106       0.00522084      -0.00417603
O        1.17258504       6.70195350       6.51938526       0.00000000       0.00000000       0.00000000       0.00473709       0.01050654      -0.00462568
O        0.99828766      14.90321005       6.78390569       0.00000000       0.00000000       0.00000000      -0.01109027       0.00359222       0.00903756
O        1.15091631       2.37409448       7.08188495       0.00000000       0.00000000       0.00000000       0.02171285      -0.00065566       0.00329878
O        9.37305009       4.96838265       6.99876151       0.00000000       0.00000000       0.00000000      -0.02845212       0.02578365      -0.00566482
O        9.26650824      16.85790872       7.25075169       0.00000000       0.00000000       0.00000000       0.00707081      -0.00609922       0.00438287
O        9.19901037       0.64476079       7.29915353       0.00000000       0.00000000       0.00000000      -0.00217173       0.01334833      -0.00735824
O        9.23641633      12.68524338       7.31041724       0.00000000       0.00000000       0.00000000       0.02275391      -0.01027863       0.00974535
O       10.91608219      18.94543774       7.70488821       0.00000000       0.00000000       0.00000000       0.00768937       0.00570845       0.00966436
O       19.35368917       6.64893215       7.78989259       0.00000000       0.00000000       0.00000000       0.00617453       0.00091691       0.00861789
O       19.40673133      10.55010263       7.91877815       0.00000000       0.00000000       0.00000000       0.00329308       0.01457366      -0.01938828
O        7.58352387      18.85199399       7.96838373       0.00000000       0.00000000       0.00000000      -0.00379693       0.00019924       0.01282088
O        7.25285651      10.95897490       7.90402931       0.00000000       0.00000000       0.00000000       0.01921169       0.03030959      -0.00088835
O        3.70499575       2.34330093       7.88159621       0.00000000       0.00000000       0.00000000      -0.00768395       0.01409602      -0.01410661
O        3.37407593       7.02448045       8.00392625       0.00000000       0.00000000       0.00000000       0.01104130      -0.00231079       0.01108804
O       19.19226831       2.74010875       7.93547545       0.00000000       0.00000000       0.00000000       0.00184262       0.00593433       0.00132826
O       19.14664262      15.04100598       7.99579654       0.00000000       0.00000000       0.00000000       0.00952032      -0.00151135       0.00805154
O       11.45990552      14.01109558       7.87571170       0.00000000       0.00000000       0.00000000       0.01071919       0.00620053       0.00538162
O        6.83783230      13.64510921       7.91908938       0.00000000       0.00000000       0.00000000       0.00969997      -0.01970464       0.02051799
O       11.59149940       6.12865621       8.05362840       0.00000000       0.00000000       0.00000000       0.00316162      -0.01815177      -0.01795060
O        3.27705767      15.36257182       8.11995047       0.00000000       0.00000000       0.00000000      -0.00394530      -0.00415266      -0.01302997
O       11.36778002      11.33268268       8.12828572       0.00000000       0.00000000       0.00000000      -0.00859304       0.01884858      -0.01692000
O        3.02017864      10.35213410       8.21531556       0.00000000       0.00000000       0.00000000       0.01571202      -0.00395234      -0.00239053
O        7.50503840       6.39063688       8.24519890       0.00000000       0.00000000       0.00000000       0.00997341      -0.00187490      -0.02176833
O        7.49304784       3.69305473       8.45889000       0.00000000       0.00000000       0.00000000       0.01631061      -0.01850186       0.03642397
O        7.01153689      16.27616322       8.53772108       0.00000000       0.00000000       0.00000000      -0.00499833       0.00510266       0.00029548
O       11.65541734      16.57149971       8.49738977       0.00000000       0.00000000       0.00000000      -0.01166331       0.00442111       0.00569899
O       10.95064508       3.56928200       8.59505794       0.00000000       0.00000000       0.00000000      -0.01584066      -0.02050345       0.02394610
O        6.92889741       1.05707881       8.65181637       0.00000000       0.00000000       0.00000000      -0.00084433       0.01159466      -0.00666481
O       11.46972351       8.77177603       8.75000657       0.00000000       0.00000000       0.00000000       0.00583833      -0.01890498       0.02194879
O       11.37130263       0.94634035       8.87879405       0.00000000       0.00000000       0.00000000      -0.02002640       0.01109455       0.00338469
O        3.38489768      12.85641838       9.01497789       0.00000000       0.00000000       0.00000000       0.00903117       0.00276336       0.01097810
O        6.82853907       8.66862437       9.15845986       0.00000000       0.00000000       0.00000000       0.00212568      -0.00590331       0.00144481
O        3.42090397       4.63838171       9.22125922       0.00000000       0.00000000       0.00000000       0.00769893      -0.00007789       0.01074931
O       19.29762055      12.75259461       9.43285422       0.00000000       0.00000000       0.00000000       0.00130926       0.00307436      -0.01184203
O       19.51198911       4.76527694       9.72347706       0.00000000       0.00000000       0.00000000      -0.01110362       0.00569257      -0.01522359
O        5.25800268      14.67593210       9.78886145       0.00000000       0.00000000       0.00000000       0.01309510       0.01149650       0.01225580
O        5.26537857       6.50893210       9.79109542       0.00000000       0.00000000       0.00000000      -0.01962760      -0.00345003       0.00106158
O        5.07841558      10.92650458       9.86534735       0.00000000       0.00000000       0.00000000      -0.03968640       0.00314967      -0.00592390
O        5.36875597       2.87047717       9.88049119       0.00000000       0.00000000       0.00000000       0.00178780       0.01338139      -0.01446532
O       13.09520403      14.76160836       9.83065689       0.00000000       0.00000000       0.00000000      -0.00006443      -0.00518708      -0.01796549
O       17.86180905      10.56985335      10.03682968       0.00000000       0.00000000       0.00000000       0.00983495      -0.01161921       0.00484553
O       13.12883012      10.52342804       9.97941138       0.00000000       0.00000000       0.00000000       0.00650752      -0.00450950      -0.00070977
O       18.04331186       7.00305266      10.04100890       0.00000000       0.00000000       0.00000000       0.01475696       0.00121313      -0.01062535
O        0.21017103       7.10845060      10.02387050       0.00000000       0.00000000       0.00000000      -0.00673812      -0.00566746       0.00547249
O       13.00942894       2.65206956      10.08483604       0.00000000       0.00000000       0.00000000      -0.01079835      -0.01284131       0.00180317
O        0.15897703       2.40439969      10.11433650       0.00000000       0.00000000       0.00000000       0.01739655      -0.00279738      -0.00479294
O        0.20333240      14.88220497      10.11736600       0.00000000       0.00000000       0.00000000      -0.01323969       0.00878071      -0.01640039
O       10.43782907      14.94967218      10.20625738       0.00000000       0.00000000       0.00000000      -0.00249211      -0.00721409      -0.01807999
O       18.03649213       2.62449701      10.35125661       0.00000000       0.00000000       0.00000000      -0.00703141      -0.00052670      -0.00674793
O       18.04763853      14.90620455      10.40388111       0.00000000       0.00000000       0.00000000      -0.02450136       0.00686545       0.00523673
O       20.51150686      10.55547238      10.35619334       0.00000000       0.00000000       0.00000000       0.02070084       0.00964731      -0.00232736
O       13.11957176       7.04940857      10.41738968       0.00000000       0.00000000       0.00000000       0.00134256      -0.00535737       0.00110676
O        7.83180976      14.40969448      10.31543618       0.00000000       0.00000000       0.00000000      -0.00867646      -0.00633980      -0.01249403
O       10.51004368      10.47431101      10.57387983       0.00000000       0.00000000       0.00000000      -0.02343628      -0.00480795       0.01252897
O        2.82654678       2.31292693      10.42860493       0.00000000       0.00000000       0.00000000       0.01508440      -0.01140978      -0.01062748
O        2.79391494       6.84265078      10.62846616       0.00000000       0.00000000       0.00000000       0.00608266      -0.00605931       0.02443391
O       10.22872107       6.87090987      10.50384516       0.00000000       0.00000000       0.00000000       0.01750634      -0.01849637      -0.01324403
O        2.81038025      14.86876290      10.72371374       0.00000000       0.00000000       0.00000000      -0.00743002       0.00583369       0.00456959
O        2.58669686      10.98530558      10.77543016       0.00000000       0.00000000       0.00000000       0.00600791      -0.01748376      -0.00333771
O        7.81565824       2.42410637      10.78346807       0.00000000       0.00000000       0.00000000      -0.00539425      -0.00604648       0.00666864
O        7.84568523      10.92263914      10.71731087       0.00000000       0.00000000       0.00000000       0.02474231       0.01519766       0.01302546
O       10.50317270       2.40208773      10.95668409       0.00000000       0.00000000       0.00000000      -0.02260449      -0.00221432      -0.00064460
O        7.59110829       6.72644746      10.94795202       0.00000000       0.00000000       0.00000000       0.00816081      -0.00208930       0.00049504
O       15.44661307      14.64828922      10.96812746       0.00000000       0.00000000       0.00000000       0.00608376       0.00557699       0.00072529
O       15.46248037       2.75134134      10.94720049       0.00000000       0.00000000       0.00000000      -0.02268717      -0.00744195      -0.00930562
O       15.50618882      10.90081137      11.10640962       0.00000000       0.00000000       0.00000000       0.00330963      -0.00337213      -0.00030416
O       15.66466596       6.45796166      11.06387895       0.00000000       0.00000000       0.00000000      -0.02772212      -0.00264910      -0.01422911
O       13.59378460      12.71282728      11.49454037       0.00000000       0.00000000       0.00000000       0.00593456      -0.00827314      -0.00404650
O        9.15288306       4.64060704      11.53933651       0.00000000       0.00000000       0.00000000      -0.00359058      -0.02158234      -0.01645568
O        9.63546476      12.77959376      11.51382021       0.00000000       0.00000000       0.00000000      -0.01783986       0.00433416      -0.01250059
O       13.71282012       4.72380471      11.63537985       0.00000000       0.00000000       0.00000000      -0.00644112       0.01938348      -0.01459187
O       16.94524991       8.72328480      11.78274092       0.00000000       0.00000000       0.00000000       0.00752743      -0.00079420      -0.00187566
O        1.36123167       8.77839793      11.78084889       0.00000000       0.00000000       0.00000000       0.00388351      -0.00524942      -0.00002844
O        1.27015231       0.90684070      12.02316442       0.00000000       0.00000000       0.00000000       0.00801057       0.01118396      -0.02510559
O        1.16877277      16.47692435      12.03257735       0.00000000       0.00000000       0.00000000      -0.01324316       0.01261927       0.01163320
O       16.95071140      16.37735940      12.34599081       0.00000000       0.00000000       0.00000000      -0.00717814       0.01312283       0.00810343
O        1.34441332       3.61678974      12.20314144       0.00000000       0.00000000       0.00000000       0.01201623       0.01737377      -0.00099191
O       17.02215145       1.11224700      12.34800407       0.00000000       0.00000000       0.00000000      -0.00396415      -0.00300785       0.00755902
O        1.04821585      13.81986767      12.43463285       0.00000000       0.00000000       0.00000000      -0.01539039      -0.02436853       0.01342209
O        0.95273857       6.25768751      12.49828252       0.00000000       0.00000000       0.00000000       0.00414515      -0.00041455       0.00807860
O       13.24020116      15.15185218      12.46627024       0.00000000       0.00000000       0.00000000      -0.01543657      -0.00624033      -0.01894210
O       17.19203874       3.77261580      12.67221777       0.00000000       0.00000000       0.00000000       0.00491174      -0.00053533      -0.00885680
O        9.15154657      15.20268933      12.51998309       0.00000000       0.00000000       0.00000000       0.00075608      -0.00694191       0.01551734
O       17.22781030      13.74136673      12.70020439       0.00000000       0.00000000       0.00000000      -0.00183451       0.00191663      -0.01930996
O       17.69698151      11.09437683      12.67568465       0.00000000       0.00000000       0.00000000       0.01057229      -0.01245719       0.00464914
O       13.36770237      10.28428316      12.61613770       0.00000000       0.00000000       0.00000000       0.00954101       0.00103184      -0.00660754
O       17.86408222       6.38923105      12.64356575       0.00000000       0.00000000       0.00000000       0.01067423       0.01135031      -0.00162095