299
Lattice="20.531028632838 0.0 0.0 0.0 20.30339864799589 0.0 0.0 0.0 13.629729092395806" Properties=species:S:1:pos:R:3:initial_magmoms:R:1:forces:R:3 energy=-105975.5048 stress="0.004901927855855528 0.00047342690003881 -0.00038130596918519214 0.00047342690003881 0.006487933980468179 -0.0005988968718198388 -0.00038130596918519214 -0.0005988968718198388 0.005511617366686268" magmom=1.0 free_energy=-105975.5048 pbc="T T T"
H       14.32545330       9.72795849       4.24432222       0.00000000      -0.00183270      -0.02616629      -0.02131950
H        8.89097832       9.42851759       5.01806436       0.00000000       0.00434256      -0.01775874       0.01758427
H       13.12324118       9.19284806       5.66954925       0.00000000       0.00936345       0.00245009       0.00555266
H       13.71929225      10.93671986       5.50341190       0.00000000       0.00993859       0.00354572      -0.01636056
H       14.98710127       9.67925649       5.96835964       0.00000000       0.01308689      -0.01756538       0.00104430
H       12.64763897       7.68005490       6.35128800       0.00000000      -0.00049305       0.00939816      -0.00109991
C       14.17779675       9.96756923       5.29748986       0.00000000       0.00779822      -0.01391714      -0.01501567
O       11.54345418       6.74736958       0.58811825       0.00000000       0.00467271      -0.00390564      -0.00067895
O       11.21427334      15.20179586       0.61354906       0.00000000       0.01356110       0.01325657       0.01005120
O       11.34087691       2.81774221       0.69403382       0.00000000      -0.00954780       0.00058849       0.00616949
O       11.44060370      10.83825625       0.78491592       0.00000000       0.00200525       0.00204048       0.00683048
O        1.46857678       4.67770222       1.00316503       0.00000000       0.01237453       0.00312967       0.02355465
O        1.17899361       0.66899046       1.03259833       0.00000000      -0.00863862      -0.00187641      -0.00471025
O        1.18194760      16.73524593       1.04842556       0.00000000      -0.00159230      -0.00878782       0.01423497
O       13.17649319       8.80839161       1.22808422       0.00000000       0.00944179       0.00067946       0.00383745
O       13.44779813      16.64317919       0.96667154       0.00000000       0.00786737      -0.00838762      -0.00196730
O        9.81000512       8.72698648       1.20168777       0.00000000      -0.00704375      -0.00549268      -0.00449956
O       17.21062452      17.25067351       1.23464278       0.00000000       0.01005427       0.01263948       0.00018683
O        9.07967854      13.67176955       1.05438922       0.00000000       0.00148074       0.01145207       0.00173304
O       17.31237545       0.18795597       1.24473022       0.00000000      -0.00125481       0.00221836       0.01478135
O        1.36223696      12.84869555       1.23952528       0.00000000      -0.00297707      -0.00211806       0.00296540
O        8.90211453      16.35785794       1.26524828       0.00000000      -0.01518117      -0.00126427      -0.01365254
O       17.13018897      12.37698156       1.31841822       0.00000000      -0.00442854      -0.00367660       0.00431904
O       17.53357827       5.12432934       1.31819681       0.00000000       0.01165504       0.01989781      -0.00996282
O       13.50003905      13.97446934       1.21223878       0.00000000       0.00059887       0.01563216      -0.00350867
O       13.74277683       3.74510522       1.32843341       0.00000000      -0.00031852       0.00400657       0.00255503
O       13.24693137       1.08292915       1.43321613       0.00000000       0.01064669       0.00087948       0.00341363
O       13.95914843      11.34727287       1.42633498       0.00000000      -0.01518651      -0.02870387       0.00048209
O        9.62130905       0.96563473       1.62761656       0.00000000      -0.00840083       0.00216417      -0.00151582
O        9.08703205       3.56629148       1.93103044       0.00000000      -0.00759022      -0.00662654      -0.01621647
O        9.06926376      11.14815273       1.91578525       0.00000000      -0.00854680       0.00658207       0.00706472
O       13.78586495       6.35909914       1.99113826       0.00000000       0.00488983       0.00711788       0.00881922
O        9.26461445       6.27020037       1.96246331       0.00000000      -0.01222143       0.00488373      -0.00987800
O       14.05328881      18.95390919       2.10838481       0.00000000      -0.00642482       0.00417008       0.01709081
O       17.12075461       2.65786966       2.16970735       0.00000000      -0.00412902      -0.00114291       0.00401349
O        9.08994899      18.78038818       2.29047523       0.00000000       0.00355316      -0.00153156       0.00952131
O       17.11334245      14.83666064       2.37741164       0.00000000       0.01515466      -0.00126783      -0.00721125
O        1.38773016       2.65200530       2.82657222       0.00000000       0.00817719       0.00137277       0.00406723
O        1.25365707      14.89107250       3.02525593       0.00000000       0.01156588      -0.00459600       0.00719239
O       15.25507423      16.69815763       2.97672412       0.00000000       0.00568878      -0.01053913       0.01323278
O       15.19751509      13.04488657       3.05754180       0.00000000       0.02459112      -0.00292728      -0.00605416
O       15.52865697       4.66280690       3.07252335       0.00000000      -0.00493001       0.01100340       0.00093005
O       15.39876193       0.78286695       3.03904888       0.00000000       0.01199039      -0.01076165       0.00209685
O        7.38326204      12.89012566       2.98482359       0.00000000      -0.00260635      -0.00070828      -0.00469536
O        2.71932391       0.35018570       3.12911985       0.00000000       0.00250035      -0.00720144      -0.00040815
O        2.53635467      17.22605408       3.25823154       0.00000000      -0.04413381       0.00521255      -0.00124705
O       20.50250297       4.87352211       3.19198296       0.00000000       0.00519771       0.00399002      -0.00448474
O        2.66307460       4.94703972       3.34170228       0.00000000      -0.00366179       0.00517457      -0.01242997
O        7.39574420      17.01160728       3.36570618       0.00000000       0.00975946       0.00070666       0.01581906
O       20.35936769      17.13333949       3.29583592       0.00000000      -0.00425920      -0.00364065       0.01139331
O        0.04005950       0.43463231       3.44300205       0.00000000      -0.00196342      -0.00545599      -0.00274685
O       20.27085292      12.69984280       3.34446159       0.00000000       0.00505678       0.00957413       0.00139478
O       12.59405057      12.58761674       3.37056372       0.00000000       0.00828919       0.01417766       0.00777200
O        9.96350238      13.12686203       3.54867988       0.00000000       0.00277107      -0.00428370      -0.00569444
O        7.66798651       5.00613374       3.64985458       0.00000000      -0.02327695      -0.01315829       0.01192629
O        2.40563084      12.58297772       3.68675660       0.00000000      -0.00032339      -0.00681619      -0.01616206
O        7.69419016       0.43894600       3.45683192       0.00000000       0.00596072       0.00598266       0.00441646
O       10.02308132      16.66042571       3.69454667       0.00000000      -0.00034369      -0.00044777      -0.00501320
O       12.67772193      17.11525924       3.49178445       0.00000000      -0.01754797      -0.00912769       0.00232837
O       17.75032477      16.99339942       3.85075170       0.00000000      -0.00279655       0.01728919       0.01506458
O       17.92885611       0.69652397       3.82002192       0.00000000       0.01563455      -0.00968557      -0.00390738
O       13.00434165       4.57466587       3.81795158       0.00000000      -0.00815697      -0.00053127      -0.00076441
O       17.65380707      12.70092475       3.93264811       0.00000000       0.01888326       0.00706001      -0.00600023
O       17.97337485       4.51252004       3.92350191       0.00000000       0.00564352       0.00999493       0.01827911
O       10.33139152       4.85793232       3.94749899       0.00000000       0.00540046      -0.00884773      -0.01615889
O       10.28114652       0.04001812       4.08173355       0.00000000      -0.00300655      -0.00593983       0.00843282
O       12.97791732       0.25746008       3.98204732       0.00000000      -0.01443713      -0.00145818      -0.00274516
O        5.14199701       0.84202624       4.09928296       0.00000000      -0.00235328       0.00100972       0.01036914
O        5.02175182      12.89528601       4.12306549       0.00000000      -0.00272953      -0.00169362      -0.00560862
O        5.11468681       4.48430327       4.21452451       0.00000000       0.01868906       0.00204546      -0.01581871
O        4.93368930      16.59386308       4.25336499       0.00000000       0.01084519       0.00479354      -0.00886981
O       11.43290408       2.44365083       4.13967987       0.00000000      -0.00233508      -0.00405933      -0.00710502
O       11.76181915      14.84097832       4.57033537       0.00000000      -0.00528292       0.00809157       0.00783634
O        7.02062888       2.65037487       4.78506399       0.00000000      -0.00014034       0.01444760      -0.00404773
O        6.84241230      14.80207990       4.80831766       0.00000000       0.00189573      -0.00523018      -0.00481470
O        3.80526181      18.93702114       4.88774389       0.00000000       0.01012488       0.00936752      -0.00238631
O       19.25307452      18.94375613       4.92530589       0.00000000       0.00155375      -0.00145365       0.00951793
O       19.46485694       6.32753297       5.17606753       0.00000000      -0.01152885       0.00811926      -0.00047716
O       19.25756590      11.12607140       5.29465764       0.00000000       0.01017964       0.00014662       0.00079598
O        3.60023064       6.30883313       5.46128782       0.00000000      -0.01037096       0.00910576       0.00839894
O        8.82912973       8.63864789       5.59302086       0.00000000       0.01001676       0.03098904      -0.03095524
O       19.93512300       3.72015860       5.55772297       0.00000000       0.01312684      -0.00090152       0.00038270
O        3.60901417      11.34695265       5.75560245       0.00000000       0.00439900       0.01621411      -0.01707961
O       19.37842141      13.78894547       5.63588329       0.00000000      -0.00077427      -0.01485641       0.00025392
O        2.98653941       3.71090932       5.69187501       0.00000000      -0.00736032      -0.00856275       0.00372263
O        7.21525480      12.29739710       5.59257082       0.00000000       0.01183614      -0.00737716       0.02821753
O        3.30184511      14.03095951       5.79055551       0.00000000      -0.00857739      -0.01061219      -0.00452585
O       11.36086828      12.43549478       5.71188822       0.00000000      -0.00470373      -0.01367978      -0.00213836
O        2.97151000       1.01042360       5.70351195       0.00000000       0.00642143       0.00384791       0.01127671
O       19.52917864      16.46579900       5.79393532       0.00000000      -0.01046979       0.00049021      -0.00617300
O       19.58590646       1.08140738       5.88386511       0.00000000       0.00783911       0.00385169      -0.00522425
O        2.77573875      16.67514854       5.86778181       0.00000000       0.00403926      -0.00551042       0.00175635
O       11.53081013      17.18709916       5.84975324       0.00000000       0.00551264      -0.00817577       0.00057984
O        6.89403916      17.18934026       5.99365316       0.00000000      -0.01751037      -0.01144561      -0.00973329
O       12.22818806       8.49396825       5.99177528       0.00000000       0.00336464       0.00045893       0.01431716
O        2.87430157       8.79336117       6.09589340       0.00000000       0.00600367      -0.00275977      -0.01320395
O        6.81601264       4.90303652       6.20035410       0.00000000      -0.00147607      -0.00197345      -0.01844022
O        6.88718063       0.27632142       6.02710635       0.00000000       0.00476890       0.01108732       0.01113608
O       11.75610765       4.25637890       6.13033561       0.00000000      -0.00563850       0.00337621      -0.02060708
O       19.97659299       8.71799216       6.15132593       0.00000000      -0.01108246      -0.00245760      -0.00314304
O       11.66426457       0.76269481       6.24341998       0.00000000      -0.00887412      -0.00939305      -0.00616803
O        1.10690389      10.82238017       6.44252503       0.00000000      -0.00643977       0.00200321       0.00806361
O        1.19712569       6.71365785       6.57739414       0.00000000      -0.00143159      -0.01012216      -0.00953863
O        0.97251475      14.90539994       6.76396958       0.00000000       0.00116846      -0.00378736      -0.00023479
O        1.12109795       2.36746433       7.06413996       0.00000000       0.00078724       0.00024358       0.00006037
O        9.36802570       5.03195791       7.00771672       0.00000000      -0.00334875      -0.00466070       0.00704006
O        9.26108031      16.87686070       7.22434949       0.00000000      -0.00018487      -0.00208849       0.01226877
O        9.20426806       0.65179294       7.29684399       0.00000000      -0.00630217      -0.00216004      -0.00344512
O        9.21128680      12.52449931       7.35729378       0.00000000       0.00413199       0.01066748      -0.00629491
O       10.91869240      18.94953886       7.75579298       0.00000000       0.00928522      -0.00527350      -0.00142763
O       19.35671334       6.66869206       7.80699979       0.00000000      -0.00142161      -0.00505816      -0.01060683
O       19.40184058      10.62136927       7.91964145       0.00000000      -0.00832534      -0.01424990      -0.00238510
O        7.58171854      18.86554729       7.95032169       0.00000000      -0.00735443      -0.00514568       0.00652073
O        7.08008347      10.98244912       7.89171390       0.00000000       0.00304706      -0.02835263       0.01101896
O        3.66529109       2.33665539       7.88149214       0.00000000      -0.01021226       0.00877329      -0.01537252
O        3.41373638       7.04701240       8.03771614       0.00000000      -0.00650500       0.00103842      -0.02191888
O       19.17542429       2.74470614       7.94956538       0.00000000       0.00739560      -0.00897783      -0.01172857
O       19.12601932      14.98927944       7.98757592       0.00000000       0.00364289      -0.00301342      -0.00689056
O       11.37271300      13.97772695       7.88515720       0.00000000       0.00419262       0.00358699       0.00294422
O        6.86261025      13.68738608       7.87604104       0.00000000       0.00721232       0.00511896       0.00643919
O       11.64032474       6.13088890       8.02646854       0.00000000      -0.00291494      -0.00635371       0.00799020
O        3.24770110      15.35510292       8.11044725       0.00000000       0.00016815      -0.00190806      -0.00365012
O       11.45105622      11.29992843       8.10354909       0.00000000      -0.00284646       0.00197092       0.01322323
O        3.06004895      10.35704760       8.22799017       0.00000000       0.02066669      -0.01908963      -0.01227876
O        7.44190562       6.38273269       8.26422657       0.00000000      -0.00455614       0.00162045       0.00842618
O        7.55271698       3.69558594       8.49207903       0.00000000       0.00395268      -0.00274709      -0.01904572
O        7.00465342      16.30147341       8.53020462       0.00000000       0.00217557       0.00298216       0.01302701
O       11.63941147      16.53497467       8.45892107       0.00000000       0.00640189       0.00510425       0.00766861
O       10.91258035       3.59134695       8.59688835       0.00000000      -0.01215104       0.00182461       0.00602359
O        6.90713663       1.07563091       8.59614441       0.00000000       0.00040582       0.00070073      -0.00388534
O       11.45711453       8.75280704       8.78786333       0.00000000      -0.00448953      -0.00151845      -0.00673104
O       11.36580066       0.97476712       8.88758054       0.00000000      -0.00241976       0.01461407       0.00124390
O        3.35275791      12.86223348       9.02960600       0.00000000       0.00743208      -0.00179463       0.00428768
O        6.70272630       8.66584163       9.16373678       0.00000000       0.00575685      -0.01966820      -0.00098769
O        3.39173442       4.63751114       9.21415028       0.00000000      -0.00280913      -0.03177257      -0.01224102
O       19.33996277      12.75820169       9.52258449       0.00000000      -0.00717249       0.01459770      -0.00162862
O       19.49305338       4.77135571       9.73120855       0.00000000       0.00561136      -0.01728665       0.00153184
O        5.24883594      14.67906586       9.75246409       0.00000000       0.01080468       0.01224977       0.00754533
O        5.25329286       6.45132168       9.86609105       0.00000000      -0.01740239       0.00569723      -0.00645179
O        5.04036540      10.95678480       9.96581129       0.00000000       0.00811940      -0.00470890       0.00323926
O        5.36455346       2.88865805       9.83660429       0.00000000      -0.02837135       0.00828434       0.00595762
O       13.07790256      14.72687905       9.79702402       0.00000000       0.00832509       0.00258163       0.00379917
O       17.82366374      10.59563117      10.02054834       0.00000000       0.00251181      -0.00831809       0.03124678
O       13.13699051      10.50242567       9.99476506       0.00000000       0.00331126      -0.00248583       0.00148886
O       18.03495051       7.01367493      10.04278261       0.00000000      -0.01869013      -0.00180196      -0.00600943
O        0.19973694       7.10789121      10.05327001       0.00000000      -0.02286324      -0.00952922       0.00711255
O       12.97224580       2.71027106      10.10547781       0.00000000       0.00303707       0.00436870      -0.00215949
O        0.16116371       2.42084950      10.11574165       0.00000000      -0.00376491       0.00175436      -0.00004912
O        0.19098387      14.94601910      10.10840601       0.00000000      -0.00351221       0.00097112       0.00544234
O       10.44417091      14.94621754      10.24066246       0.00000000      -0.01200822       0.00257087      -0.00455920
O       18.02732114       2.62114103      10.35471805       0.00000000       0.00726007       0.00626158      -0.01189096
O       18.02669868      14.91459515      10.38993856       0.00000000      -0.00342608      -0.00337652      -0.01073113
O       20.45777509      10.48990515      10.38124007       0.00000000       0.00226704       0.02105062      -0.01554738
O       13.11109010       7.04026337      10.43356192       0.00000000       0.01565305      -0.00028597      -0.00128666
O        7.82458645      14.42236122      10.28615333       0.00000000      -0.00023310       0.00588933       0.02586866
O       10.52128011      10.52624648      10.56934709       0.00000000      -0.00282773       0.00180621      -0.00033798
O        2.82914284       2.31369829      10.43885231       0.00000000       0.00508404      -0.00395543       0.00396855
O        2.77554245       6.82463190      10.64951098       0.00000000      -0.01534880      -0.00014248       0.00877386
O       10.23971087       6.76100397      10.48070288       0.00000000       0.00658250       0.01218137       0.00705851
O        2.80404860      14.88881451      10.72300858       0.00000000      -0.00846374       0.01788912       0.01000969
O        2.51534665      11.00409964      10.76950808       0.00000000       0.03020411      -0.00707287       0.01273538
O        7.77912023       2.36849461      10.78726563       0.00000000      -0.00249277      -0.00253629       0.00156919
O        7.84947497      10.89936971      10.66797751       0.00000000       0.00462216       0.00415532       0.02904280
O       10.46502915       2.42176901      10.95738870       0.00000000       0.00675434       0.00833813      -0.00364035
O        7.60091323       6.79212337      10.95337923       0.00000000       0.00652133       0.00210813       0.00240470
O       15.42556009      14.64869056      10.95931404       0.00000000       0.00303384       0.01629254      -0.01053648
O       15.44121735       2.75785688      10.94454035       0.00000000       0.00743301      -0.00763607      -0.00771539
O       15.49713723      10.88511215      11.14713257       0.00000000       0.01735402       0.00496927       0.00590533
O       15.65776906       6.49508707      11.07579769       0.00000000      -0.00925917      -0.01441300       0.00285449
O       13.58733434      12.70448546      11.49440644       0.00000000       0.00481190       0.00546096       0.00731659
O        9.04136973       4.62197121      11.55179325       0.00000000      -0.02534874      -0.01510523      -0.00198156
O        9.57124666      12.78798422      11.53862811       0.00000000       0.00657264       0.00745947      -0.00993255
O       13.73563583       4.73909517      11.69509876       0.00000000      -0.00578086       0.02374699      -0.00744220
O       16.98194389       8.73327347      11.80285981       0.00000000      -0.01470970       0.01308759      -0.01138164
O        1.36256643       8.77509826      11.80847335       0.00000000      -0.00100088      -0.01491711      -0.00122584
O        1.25533365       0.92443378      12.03389681       0.00000000      -0.01767860      -0.01685813       0.00188377
O        1.16930427      16.47742451      12.05699467       0.00000000       0.00879450       0.00877494      -0.00704324
O       16.93748959      16.38451053      12.33418596       0.00000000       0.00829470      -0.01483906      -0.01012592
O        1.34951446       3.63517635      12.20456699       0.00000000      -0.00327390      -0.01626097      -0.01086906
O       16.99867022       1.11226241      12.33911954       0.00000000      -0.00193240      -0.00501276       0.00341444
O        1.02217050      13.79963329      12.39232135       0.00000000      -0.00188251       0.00799817       0.00486893
O        0.94471588       6.26556957      12.53402641       0.00000000       0.00256914       0.00474674       0.00154533
O       13.20863684      15.14534550      12.43832722       0.00000000      -0.00545781       0.01124740       0.00048286
O       17.18901666       3.77106264      12.66616342       0.00000000      -0.00390812       0.01298759       0.02064779
O        9.10840956      15.22328667      12.51491106       0.00000000       0.00042662      -0.00602988      -0.00597998
O       17.21504649      13.75102702      12.68760431       0.00000000      -0.00064554      -0.00597910      -0.00804626
O       17.71323939      11.10871849      12.67239275       0.00000000       0.00096219      -0.00624816       0.00228422
O       13.35628064      10.28524366      12.63925913       0.00000000       0.00251770       0.00493690       0.00228895
O       17.87027875       6.38370746      12.64276089       0.00000000      -0.00081796       0.01004929       0.00555583
O       13.46825433       2.30918527      12.73122847       0.00000000      -0.01286042      -0.00910466      -0.01422276
O        0.85583147      11.15711945      12.84090101       0.00000000       0.00318077       0.01591322       0.00725486
O       17.70134146      18.88621393      12.80969195       0.00000000       0.01308838      -0.01298531       0.00140106
O        9.24055457      10.50919774      12.90567691       0.00000000      -0.01118665       0.00180715      -0.00809668
O       13.93957221       7.02786238      13.01806941       0.00000000      -0.01192404      -0.00244231      -0.02807738
O        9.19200628       6.87002549      12.99185031       0.00000000       0.00266965      -0.00438018       0.00564953
O        0.63041482      18.85782685      13.09828190       0.00000000      -0.01305010       0.02068630       0.00952593
O        8.96072516       2.45400650      13.14458899       0.00000000       0.00985946      -0.00897008      -0.00182684
O       19.63833143       4.49541437      13.38097833       0.00000000      -0.01985462      -0.00463268      -0.00209680
O       19.43183794       0.61340215      13.27982616       0.00000000       0.01699561       0.00467150       0.00105171
O       19.38236168      16.84252138      13.35555690       0.00000000       0.00080882      -0.01023040      -0.00005667
O       19.47862888      12.81605992      13.75017654       0.00000000       0.00660696       0.01738249      -0.01280248
Al      11.64448642       7.07073536       9.51646755       0.00000000      -0.01875356       0.00410240      -0.00319512
Al       6.62572113      10.44261603       9.55178417       0.00000000       0.00940692      -0.00841377      -0.00769092
Si      12.83406199      15.23228038       0.39599450       0.00000000       0.01057077       0.01296662       0.01800211
Si       9.58378353      15.11569428       0.44962910       0.00000000       0.01108575      -0.03244180       0.00530318
Si      12.98568684      10.31170109       0.60493220       0.00000000      -0.01946874       0.01583054       0.00200718
Si      12.94504988       2.48507310       0.64168411       0.00000000       0.00479736       0.01347938      -0.00188050
Si      13.10781170       7.22549941       0.77556511       0.00000000      -0.02106575      -0.00750708      -0.01026102
Si       9.88305256      10.30136599       0.76056873       0.00000000       0.00691293      -0.00099982       0.00786708
Si       9.95745493       7.14977497       0.76891647       0.00000000      -0.01259373      -0.00967300      -0.00989504
Si       9.76180816       2.44772860       0.94272231       0.00000000      -0.01238852       0.01097447      -0.03001497
Si      13.79392551      12.75266632       2.26142309       0.00000000      -0.00570008      -0.00171929       0.00470343
Si       8.89157099      12.71634783       2.36976500       0.00000000       0.00754598      -0.00850836       0.00582450
Si      13.86353392      17.35334413       2.39140209       0.00000000      -0.02586213       0.00101308      -0.00379500
Si      13.99179346       4.82748569       2.53776470       0.00000000      -0.01254542      -0.01998916      -0.00834492
Si      16.83520979      16.44033638       2.60778136       0.00000000       0.00063634       0.00333220      -0.01945306
Si      16.94216403       1.07819024       2.57102030       0.00000000       0.00104065       0.00609810      -0.00924348
Si       1.37317283       4.27495410       2.58535627       0.00000000      -0.00759275      -0.00775965       0.00327986
Si      17.03790172       4.23874106       2.61034955       0.00000000       0.00561633      -0.01503646       0.00036405
Si       1.32119553       1.03019872       2.61283137       0.00000000       0.01056666       0.03016396      -0.01018574
Si      16.78116798      13.25108037       2.66508563       0.00000000       0.01272382       0.01681998      -0.01391520
Si      13.91963700       0.19660575       2.63595678       0.00000000       0.00302576      -0.00180566       0.00703196
Si       1.19840705      16.49006181       2.66142349       0.00000000      -0.01472817       0.01916276       0.01761403
Si       8.86544827      17.20454385       2.66513354       0.00000000      -0.01664102       0.02068040       0.00760665
Si       1.19060774      13.26144176       2.81709966       0.00000000       0.01210425      -0.01450992       0.00487799
Si       9.10329578       4.91549614       2.85985311       0.00000000      -0.00547721       0.00490886      -0.01503480
Si       9.16265414       0.00631774       2.86993831       0.00000000      -0.00760578      -0.02820405      -0.00187541
Si      11.41792067      13.26662393       4.28830446       0.00000000      -0.01263215      -0.01329112       0.00364220
Si      11.49093596      16.45216815       4.39115663       0.00000000       0.00695402      -0.00352601      -0.00475182
Si       6.60149275      13.23472005       4.38301225       0.00000000      -0.00091905      -0.00694632       0.01076007
Si      19.22669418      17.37358179       4.46276737       0.00000000       0.00281352      -0.01772970      -0.00835390
Si      19.34021094       0.22158042       4.50787538       0.00000000      -0.02655311       0.01314742      -0.00186613
Si       3.66930757       0.20750026       4.45718186       0.00000000       0.01735651      -0.00288985       0.01197073
Si      19.47409337       4.84957776       4.46935253       0.00000000       0.01243222      -0.00578163      -0.01520715
Si      11.62710621       4.03424817       4.51676643       0.00000000       0.01948911       0.00192124      -0.00450756
Si       3.51660951      17.35831863       4.56881645       0.00000000       0.00389431      -0.00785687      -0.00722118
Si      11.59625071       0.87738294       4.61105730       0.00000000      -0.00125385       0.00107741       0.00339411
Si       6.52050528      16.39787592       4.60716923       0.00000000      -0.00419759       0.03074922       0.00829710
Si      19.16492577      12.58623071       4.55301309       0.00000000      -0.01850146      -0.01526650       0.01973827
Si       6.66236531       4.25138121       4.69637196       0.00000000      -0.00375469       0.00297874       0.00515251
Si       6.69141138       1.05271044       4.59591049       0.00000000      -0.01060171      -0.01304807      -0.00134489
Si       3.59016454       4.85624132       4.68859533       0.00000000       0.00254705       0.02187679       0.00927736