65
Lattice="10.862 0.0 0.0 0.0 10.862 0.0 0.0 0.0 10.862" Properties=species:S:1:pos:R:3:initial_magmoms:R:1:momenta:R:3:forces:R:3 energy=-345.99882828071713 pbc="T T T"
Li       6.13844055       6.13843940       6.13844223       0.00000000       0.00000000       0.00000000       0.00000000       0.00051070       0.00053286       0.00049672
Si       1.39460278       4.09637023       1.39460582       0.00000000       0.00000000       0.00000000       0.00000000       0.00052822       0.01186791       0.00048181
Si       1.38205731       4.09875640       6.81977790       0.00000000       0.00000000       0.00000000       0.00000000      -0.00781236       0.00285181       0.00661440
Si       1.37659026       9.53544154       1.37659300       0.00000000       0.00000000       0.00000000       0.00000000      -0.00166482      -0.00428961      -0.00168479
Si       1.37544307       9.54274689       6.81514817       0.00000000       0.00000000       0.00000000       0.00000000      -0.00019665       0.00485206      -0.02104860
Si       6.81977829       4.09875544       1.38205758       0.00000000       0.00000000       0.00000000       0.00000000       0.00660512       0.00288549      -0.00781160
Si       6.85649737       4.01665045       6.85649306       0.00000000       0.00000000       0.00000000       0.00000000       0.00936477      -0.00182958       0.00938816
Si       6.81514937       9.54275067       1.37544436       0.00000000       0.00000000       0.00000000       0.00000000      -0.02105060       0.00480176      -0.00022975
Si       6.81225905       9.54988980       6.81225919       0.00000000       0.00000000       0.00000000       0.00000000       0.00333803      -0.00778119       0.00331882
Si       0.03788600       0.03788762       2.74099881       0.00000000       0.00000000       0.00000000       0.00000000       0.00154650       0.00152360       0.00442612
Si       0.01984318       0.01984373       8.18010551       0.00000000       0.00000000       0.00000000       0.00000000      -0.00029263      -0.00031563      -0.01191118
Si       0.03906598       5.46132178       2.73376442       0.00000000       0.00000000       0.00000000       0.00000000       0.00017051       0.02119144      -0.00490058
Si       0.03242850       5.45673133       8.17775212       0.00000000       0.00000000       0.00000000       0.00000000       0.00776218      -0.00670338      -0.00293879
Si       5.46132680       0.03907118       2.73376594       0.00000000       0.00000000       0.00000000       0.00000000       0.02112040       0.00017442      -0.00492184
Si       5.45672837       0.03242675       8.17775801       0.00000000       0.00000000       0.00000000       0.00000000      -0.00668588       0.00776949      -0.00296837
Si       5.46420195       5.46420132       2.72659157       0.00000000       0.00000000       0.00000000       0.00000000      -0.00340731      -0.00339017       0.00770750
Si       5.41996388       5.41995756       8.25980441       0.00000000       0.00000000       0.00000000       0.00000000      -0.00956548      -0.00953095       0.00224297
Si       1.39460214       1.39460348       4.09636728       0.00000000       0.00000000       0.00000000       0.00000000       0.00049623       0.00051023       0.01194945
Si       1.37659141       1.37659045       9.53544363       0.00000000       0.00000000       0.00000000       0.00000000      -0.00167312      -0.00166303      -0.00434802
Si       1.38205681       6.81977910       4.09875221       0.00000000       0.00000000       0.00000000       0.00000000      -0.00779055       0.00659587       0.00294498
Si       1.37544482       6.81515096       9.54275033       0.00000000       0.00000000       0.00000000       0.00000000      -0.00023059      -0.02106111       0.00475424
Si       6.81977930       1.38205636       4.09875480       0.00000000       0.00000000       0.00000000       0.00000000       0.00662561      -0.00779489       0.00293882
Si       6.81515103       1.37544438       9.54274832       0.00000000       0.00000000       0.00000000       0.00000000      -0.02107223      -0.00023068       0.00475745
Si       6.85649853       6.85649635       4.01664982       0.00000000       0.00000000       0.00000000       0.00000000       0.00932168       0.00933153      -0.00177253
Si       6.81226041       6.81225915       9.54988777       0.00000000       0.00000000       0.00000000       0.00000000       0.00330376       0.00330239      -0.00780175
Si       0.03788750       2.74099699       0.03788632       0.00000000       0.00000000       0.00000000       0.00000000       0.00154963       0.00444660       0.00156812
Si       0.03906081       2.73376538       5.46132284       0.00000000       0.00000000       0.00000000       0.00000000       0.00023951      -0.00492212       0.02117914
Si       0.01984405       8.18010708       0.01984329       0.00000000       0.00000000       0.00000000       0.00000000      -0.00030765      -0.01194109      -0.00027913
Si       0.03243025       8.17775570       5.45673330       0.00000000       0.00000000       0.00000000       0.00000000       0.00772971      -0.00299880      -0.00676305
Si       5.46132665       2.73376284       0.03906850       0.00000000       0.00000000       0.00000000       0.00000000       0.02112425      -0.00489219       0.00021256
Si       5.46419797       2.72659510       5.46419772       0.00000000       0.00000000       0.00000000       0.00000000      -0.00336117       0.00767070      -0.00338083
Si       5.45673503       8.17775758       0.03242869       0.00000000       0.00000000       0.00000000       0.00000000      -0.00673878      -0.00299065       0.00776303
Si       5.41996787       8.25980699       5.41995915       0.00000000       0.00000000       0.00000000       0.00000000      -0.00959169       0.00220986      -0.00954529
Si       4.12302293       4.12302722       4.12302458       0.00000000       0.00000000       0.00000000       0.00000000      -0.00313886      -0.00314890      -0.00315973
Si       4.05648578       4.05648047       9.56751057       0.00000000       0.00000000       0.00000000       0.00000000       0.01850386       0.01850628      -0.02517753
Si       4.05648822       9.56750877       4.05647996       0.00000000       0.00000000       0.00000000       0.00000000       0.01849238      -0.02517288       0.01851320
Si       4.10856194       9.55004706       9.55005189       0.00000000       0.00000000       0.00000000       0.00000000       0.00636787       0.00862456       0.00860620
Si       9.56750247       4.05648345       4.05648191       0.00000000       0.00000000       0.00000000       0.00000000      -0.02513585       0.01848626       0.01848123
Si       9.55005091       4.10856099       9.55004985       0.00000000       0.00000000       0.00000000       0.00000000       0.00863857       0.00642485       0.00864338
Si       9.55004949       9.55004795       4.10856010       0.00000000       0.00000000       0.00000000       0.00000000       0.00864619       0.00859558       0.00637388
Si       9.51528653       9.51529197       9.51529470       0.00000000       0.00000000       0.00000000       0.00000000      -0.00706075      -0.00705826      -0.00709950
Si       2.74099638       0.03788506       0.03788379       0.00000000       0.00000000       0.00000000       0.00000000       0.00443151       0.00152934       0.00157904
Si       2.73377005       0.03906841       5.46131953       0.00000000       0.00000000       0.00000000       0.00000000      -0.00494146       0.00019282       0.02118447
Si       2.73376784       5.46132135       0.03906818       0.00000000       0.00000000       0.00000000       0.00000000      -0.00491284       0.02117222       0.00021596
Si       2.72659511       5.46420036       5.46420405       0.00000000       0.00000000       0.00000000       0.00000000       0.00767308      -0.00334497      -0.00341707
Si       8.18010063       0.01984938       0.01984668       0.00000000       0.00000000       0.00000000       0.00000000      -0.01187452      -0.00032527      -0.00028479
Si       8.17776074       0.03242657       5.45672848       0.00000000       0.00000000       0.00000000       0.00000000      -0.00303498       0.00777222      -0.00671330
Si       8.17775390       5.45673056       0.03243044       0.00000000       0.00000000       0.00000000       0.00000000      -0.00294350      -0.00672829       0.00773945
Si       8.25980206       5.41995936       5.41995886       0.00000000       0.00000000       0.00000000       0.00000000       0.00225228      -0.00952310      -0.00953715
Si       4.09636801       1.39460023       1.39460170       0.00000000       0.00000000       0.00000000       0.00000000       0.01191604       0.00051539       0.00049753
Si       4.09876061       1.38205549       6.81977938       0.00000000       0.00000000       0.00000000       0.00000000       0.00285089      -0.00778717       0.00660704
Si       4.09875844       6.81978065       1.38205619       0.00000000       0.00000000       0.00000000       0.00000000       0.00288098       0.00660745      -0.00781484
Si       4.01665520       6.85649909       6.85649912       0.00000000       0.00000000       0.00000000       0.00000000      -0.00179226       0.00932082       0.00931109
Si       9.53544289       1.37659260       1.37659371       0.00000000       0.00000000       0.00000000       0.00000000      -0.00432170      -0.00167553      -0.00169670
Si       9.54274210       1.37544077       6.81515441       0.00000000       0.00000000       0.00000000       0.00000000       0.00485535      -0.00020269      -0.02107652
Si       9.54274398       6.81515300       1.37544220       0.00000000       0.00000000       0.00000000       0.00000000       0.00484451      -0.02107645      -0.00022682
Si       9.54988245       6.81226004       6.81225940       0.00000000       0.00000000       0.00000000       0.00000000      -0.00777341       0.00331014       0.00331059
Si       2.76113829       2.76113310       2.76113754       0.00000000       0.00000000       0.00000000       0.00000000       0.00705783       0.00710778       0.00705146
Si       2.72644827       2.72644511       8.16792165       0.00000000       0.00000000       0.00000000       0.00000000      -0.00874868      -0.00873472      -0.00648267
Si       2.72644700       8.16792234       2.72644531       0.00000000       0.00000000       0.00000000       0.00000000      -0.00872033      -0.00646780      -0.00872801
Si       2.70898118       8.22000067       8.21999644       0.00000000       0.00000000       0.00000000       0.00000000       0.02518913      -0.01851746      -0.01847006
Si       8.16791713       2.72644379       2.72644395       0.00000000       0.00000000       0.00000000       0.00000000      -0.00643119      -0.00870593      -0.00871324
Si       8.22000293       2.70898136       8.22000378       0.00000000       0.00000000       0.00000000       0.00000000      -0.01857744       0.02522081      -0.01855934
Si       8.21999519       8.21999935       2.70897722       0.00000000       0.00000000       0.00000000       0.00000000      -0.01847799      -0.01848503       0.02523010
Si       8.15338892       8.15339290       8.15339232       0.00000000       0.00000000       0.00000000       0.00000000       0.00338975       0.00338498       0.00337456
