66
Lattice="11.5352 0.0 0.0 0.0 19.0638 0.0 -5.7676 0.0 9.98977" Properties=species:S:1:pos:R:3:move_mask:L:1:initial_magmoms:R:1:momenta:R:3:forces:R:3 energy=-203.0685646533966 pbc="T T T"
H        2.08875717      10.37275048       6.58773829  T       0.00000000       0.00000000       0.00000000       0.00000000      -0.02823500       0.03488369      -0.03028817
H        1.57022948      10.37249120       5.68917948  T       0.00000000       0.00000000       0.00000000       0.00000000       0.01189934       0.03537605       0.03936702
Au       0.23070400       1.90638000       0.39959080  F       0.00000000       0.00000000       0.00000000       0.00000000       0.00032530      -0.46052748      -0.00023261
Au       3.11450400       1.90638000       0.39959080  F       0.00000000       0.00000000       0.00000000       0.00000000      -0.00195863      -0.46270408      -0.00162139
Au       5.99830400       1.90638000       0.39959080  F       0.00000000       0.00000000       0.00000000       0.00000000      -0.00041890      -0.45563329      -0.00060491
Au       8.88210400       1.90638000       0.39959080  F       0.00000000       0.00000000       0.00000000       0.00000000       0.00040971      -0.45715714      -0.00013776
Au      -1.21119600       1.90638000       2.89703330  F       0.00000000       0.00000000       0.00000000       0.00000000       0.00028167      -0.45716381      -0.00035253
Au       1.67260400       1.90638000       2.89703330  F       0.00000000       0.00000000       0.00000000       0.00000000       0.00006715      -0.45620517      -0.00129956
Au       4.55640400       1.90638000       2.89703330  F       0.00000000       0.00000000       0.00000000       0.00000000      -0.00090329      -0.45601811      -0.00069513
Au       7.44020400       1.90638000       2.89703330  F       0.00000000       0.00000000       0.00000000       0.00000000      -0.00036429      -0.45604967       0.00016600
Au      -2.65309600       1.90638000       5.39447580  F       0.00000000       0.00000000       0.00000000       0.00000000       0.00027242      -0.45564540       0.00059412
Au       0.23070400       1.90638000       5.39447580  F       0.00000000       0.00000000       0.00000000       0.00000000      -0.00016962      -0.45237065       0.00014060
Au       3.11450400       1.90638000       5.39447580  F       0.00000000       0.00000000       0.00000000       0.00000000      -0.00029699      -0.44815676       0.00012451
Au       5.99830400       1.90638000       5.39447580  F       0.00000000       0.00000000       0.00000000       0.00000000       0.00010913      -0.45600215       0.00105976
Au      -4.09499600       1.90638000       7.89191830  F       0.00000000       0.00000000       0.00000000       0.00000000       0.00039567      -0.46272802       0.00243802
Au      -1.21119600       1.90638000       7.89191830  F       0.00000000       0.00000000       0.00000000       0.00000000      -0.00132402      -0.45573766       0.00071568
Au       1.67260400       1.90638000       7.89191830  F       0.00000000       0.00000000       0.00000000       0.00000000      -0.00025169      -0.45236715       0.00000899
Au       4.55640400       1.90638000       7.89191830  F       0.00000000       0.00000000       0.00000000       0.00000000       0.00112588      -0.45619564       0.00052380
Au       0.23069823       4.26098807       2.06455580  F       0.00000000       0.00000000       0.00000000       0.00000000       0.00228653       0.44465928       0.01983528
Au       3.11449823       4.26098807       2.06455580  F       0.00000000       0.00000000       0.00000000       0.00000000       0.00517471       0.46501339       0.03627177
Au       5.99829823       4.26098807       2.06455580  F       0.00000000       0.00000000       0.00000000       0.00000000      -0.00044933       0.44173613       0.00095638
Au       8.88209823       4.26098807       2.06455580  F       0.00000000       0.00000000       0.00000000       0.00000000      -0.00157599       0.43903905       0.00115196
Au      -1.21120177       4.26098807       4.56199830  F       0.00000000       0.00000000       0.00000000       0.00000000       0.00993163       0.46107288       0.01691933
Au       1.67259823       4.26098807       4.56199830  F       0.00000000       0.00000000       0.00000000       0.00000000       0.01485006       0.47763072       0.01185050
Au       4.55639823       4.26098807       4.56199830  F       0.00000000       0.00000000       0.00000000       0.00000000      -0.02358026       0.48233823       0.01391261
Au       7.44019823       4.26098807       4.56199830  F       0.00000000       0.00000000       0.00000000       0.00000000      -0.00085965       0.44170818       0.00028739
Au      -2.65310177       4.26098807       7.05944080  F       0.00000000       0.00000000       0.00000000       0.00000000       0.02872970       0.46843248      -0.01450035
Au       0.23069823       4.26098807       7.05944080  F       0.00000000       0.00000000       0.00000000       0.00000000       0.00412444       0.48681486      -0.00212807
Au       3.11449823       4.26098807       7.05944080  F       0.00000000       0.00000000       0.00000000       0.00000000      -0.00261412       0.47781655      -0.01847714
Au       5.99829823       4.26098807       7.05944080  F       0.00000000       0.00000000       0.00000000       0.00000000      -0.02881482       0.46520685      -0.02230316
Au      -4.09500177       4.26098807       9.55688330  F       0.00000000       0.00000000       0.00000000       0.00000000       0.00662359       0.43269592      -0.00348129
Au      -1.21120177       4.26098807       9.55688330  F       0.00000000       0.00000000       0.00000000       0.00000000       0.02719256       0.46848294      -0.01715609
Au       1.67259823       4.26098807       9.55688330  F       0.00000000       0.00000000       0.00000000       0.00000000      -0.00951380       0.46110387      -0.01668010
Au       4.55639823       4.26098807       9.55688330  F       0.00000000       0.00000000       0.00000000       0.00000000      -0.01587440       0.44467731      -0.01150608
Au       1.67943830       6.68568724       1.23076731  T       0.00000000       0.00000000       0.00000000       0.00000000      -0.00016233       0.00268305      -0.00171172
Au       4.55761498       6.69025616       1.23302318  T       0.00000000       0.00000000       0.00000000       0.00000000       0.00054676      -0.00221789       0.00046941
Au       7.44210603       6.69347456       1.23113091  T       0.00000000       0.00000000       0.00000000       0.00000000       0.00034899       0.00153435      -0.00077016
Au      10.32985069       6.68863833       1.22947804  T       0.00000000       0.00000000       0.00000000       0.00000000      -0.00075222      -0.00112547       0.00043251
Au       0.23597002       6.70362891       3.73459994  T       0.00000000       0.00000000       0.00000000       0.00000000      -0.00157823      -0.00983906      -0.00531340
Au       3.11003041       6.72274786       3.74635550  T       0.00000000       0.00000000       0.00000000       0.00000000       0.00267889      -0.00969181      -0.00646456
Au       5.99363648       6.69378610       3.73300879  T       0.00000000       0.00000000       0.00000000       0.00000000       0.00101158       0.00129216      -0.00061928
Au       8.88454479       6.69345762       3.72952590  T       0.00000000       0.00000000       0.00000000       0.00000000       0.00090709       0.00159775       0.00012061
Au      -1.19554508       6.71707426       6.22010174  T       0.00000000       0.00000000       0.00000000       0.00000000      -0.00803977      -0.01140233       0.00360345
Au       1.67404857       6.73543027       6.22690477  T       0.00000000       0.00000000       0.00000000       0.00000000      -0.00076343       0.00501552       0.00045494
Au       4.54024051       6.72286089       6.22361994  T       0.00000000       0.00000000       0.00000000       0.00000000       0.00694802      -0.00964199       0.00079361
Au       7.44067081       6.69020536       6.22664274  T       0.00000000       0.00000000       0.00000000       0.00000000      -0.00017558      -0.00210821      -0.00089065
Au      -2.64139345       6.69121391       8.71845823  T       0.00000000       0.00000000       0.00000000       0.00000000      -0.00328706       0.00318658       0.00177699
Au       0.24519768       6.71710085       8.71550568  T       0.00000000       0.00000000       0.00000000       0.00000000      -0.00721259      -0.01146748       0.00505441
Au       3.11342083       6.70363621       8.71849589  T       0.00000000       0.00000000       0.00000000       0.00000000       0.00378460      -0.00980049       0.00393253
Au       6.00355413       6.68563931       8.72032976  T       0.00000000       0.00000000       0.00000000       0.00000000       0.00130767       0.00272942       0.00084697
Au       0.24872701       9.19069262       0.39075747  T       0.00000000       0.00000000       0.00000000       0.00000000      -0.00147603      -0.00162865       0.00103279
Au       3.12780182       9.19000395       0.38374694  T       0.00000000       0.00000000       0.00000000       0.00000000      -0.00692349       0.00043190       0.00194455
Au       5.99018262       9.18973232       0.42907571  T       0.00000000       0.00000000       0.00000000       0.00000000      -0.00306280       0.00543808      -0.00133754
Au       8.90325065       9.19198957       0.43511783  T       0.00000000       0.00000000       0.00000000       0.00000000      -0.00143125       0.00488239      -0.00212090
Au      -1.22966466       9.19189850       2.86353444  T       0.00000000       0.00000000       0.00000000       0.00000000       0.00048326       0.00495981       0.00226669
Au       1.67172833       9.18011016       2.84941226  T       0.00000000       0.00000000       0.00000000       0.00000000      -0.00088562       0.00226171       0.00883187
Au       4.55994569       9.19319313       2.88438831  T       0.00000000       0.00000000       0.00000000       0.00000000       0.00339918       0.00413881      -0.00430643
Au       7.43063369       9.19415561       2.90433750  T       0.00000000       0.00000000       0.00000000       0.00000000       0.00466796      -0.00258041      -0.00306569
Au      -2.68113193       9.18971217       5.38934402  T       0.00000000       0.00000000       0.00000000       0.00000000      -0.00042721       0.00542581       0.00288914
Au       0.13826289       9.25561135       5.32269108  T       0.00000000       0.00000000       0.00000000       0.00000000       0.01483062      -0.03459563       0.00264730
Au       3.18967059       9.31499934       5.35287898  T       0.00000000       0.00000000       0.00000000       0.00000000       0.00057332      -0.04457999      -0.00086429
Au       6.01250389       9.19324210       5.40010013  T       0.00000000       0.00000000       0.00000000       0.00000000       0.00526938       0.00407876      -0.00071600
Au      -4.07329400       9.18999488       7.89059668  T       0.00000000       0.00000000       0.00000000       0.00000000      -0.00493163       0.00045153       0.00535432
Au      -1.20006329       9.19882581       7.88725538  T       0.00000000       0.00000000       0.00000000       0.00000000       0.00128371       0.00450057      -0.00113372
Au       1.69014838       9.25562024       8.01055826  T       0.00000000       0.00000000       0.00000000       0.00000000       0.00452718      -0.03418662      -0.01412793
Au       4.59860628       9.18013668       7.91903842  T       0.00000000       0.00000000       0.00000000       0.00000000      -0.00805385       0.00223111      -0.00386898
