67
Lattice="12.3227 0.0 0.0 0.0 20.0 0.0 -6.16154 0.0 10.6715" Properties=species:S:1:pos:R:3:initial_magmoms:R:1:momenta:R:3:forces:R:3 _atst_autoneb_index=5 atst_endpoint_result=computed energy=-539.5196187496185 stress="-0.008264392051300746 0.00046418003923325804 -9.752133603258863e-05 0.00046418003923325804 0.0017112738105963512 -0.000178430301604856 -9.752133603258863e-05 -0.000178430301604856 0.0033357021022942662" pbc="T T T"
C        0.20472610       9.91375193       0.33038236       0.00000000       0.00000000       0.00000000       0.00000000       0.01678991       0.01229850       0.00388084
C        1.43433058       9.90452379       1.06442344       0.00000000       0.00000000       0.00000000       0.00000000       0.01157340       0.01085268       0.00396411
C        2.67335042       9.90157006       0.37179481       0.00000000       0.00000000       0.00000000       0.00000000       0.00278249       0.01018831      -0.00919229
C        3.90147612       9.95358293       1.10724840       0.00000000       0.00000000       0.00000000       0.00000000       0.00667521      -0.00136752       0.00225648
C        5.12979095       9.87400745       0.37304113       0.00000000       0.00000000       0.00000000       0.00000000       0.00623595       0.00826975      -0.01010914
C        6.36796553       9.89715322       1.06657316       0.00000000       0.00000000       0.00000000       0.00000000      -0.00141738       0.00313989       0.01664366
C        7.59730266       9.87308249       0.33234754       0.00000000       0.00000000       0.00000000       0.00000000       0.00692868       0.03710071       0.01387309
C        8.83474491       9.87055292       1.02587262       0.00000000       0.00000000       0.00000000       0.00000000       0.01536602       0.03109897       0.01862175
C       10.06270993       9.93107877       0.29046068       0.00000000       0.00000000       0.00000000       0.00000000       0.00571221       0.03913029      -0.00842959
C       11.29071952       9.87303607       1.02553446       0.00000000       0.00000000       0.00000000       0.00000000      -0.00322110       0.02658814       0.00678276
C       -1.03606847       9.76927605       2.44723980       0.00000000       0.00000000       0.00000000       0.00000000       0.00565329       0.01582970      -0.00530869
C        0.18919853       9.78971433       3.17569340       0.00000000       0.00000000       0.00000000       0.00000000       0.00819449       0.03458937      -0.00343902
C        1.42839052       9.91662371       2.49323004       0.00000000       0.00000000       0.00000000       0.00000000      -0.00866645       0.02972982      -0.01143906
C        2.64523627      10.10352230       3.23832855       0.00000000       0.00000000       0.00000000       0.00000000       0.01264986       0.03434571      -0.00885398
C        3.89925336      10.10784981       2.52748921       0.00000000       0.00000000       0.00000000       0.00000000       0.00940702      -0.01261847      -0.02190231
C        5.15248545      10.14218400       3.23476179       0.00000000       0.00000000       0.00000000       0.00000000      -0.00475709      -0.02195589       0.00386799
C        6.37487851       9.97947789       2.49357982       0.00000000       0.00000000       0.00000000       0.00000000       0.01726310      -0.04240533      -0.00634275
C        7.61751159       9.89822165       3.17790409       0.00000000       0.00000000       0.00000000       0.00000000       0.00200811      -0.02659775       0.00369610
C        8.83937014       9.81581895       2.45004523       0.00000000       0.00000000       0.00000000       0.00000000       0.01237193       0.00703479      -0.00411772
C       10.06296438       9.73591625       3.16760734       0.00000000       0.00000000       0.00000000       0.00000000       0.00686824       0.00895345       0.00938817
C       -2.25852222       9.67116218       4.59656455       0.00000000       0.00000000       0.00000000       0.00000000       0.00232557       0.01322315      -0.00677709
C       -1.04366535       9.63270536       5.32049447       0.00000000       0.00000000       0.00000000       0.00000000      -0.00000314       0.03831976      -0.00294271
C        0.16954430       9.73314411       4.59526395       0.00000000       0.00000000       0.00000000       0.00000000      -0.00450237       0.05955338      -0.01502641
C        1.36548251       9.94707466       5.31323641       0.00000000       0.00000000       0.00000000       0.00000000       0.02601400       0.08694138       0.02585513
C        2.55149073      10.25607567       4.64537208       0.00000000       0.00000000       0.00000000       0.00000000      -0.01198365       0.05742734      -0.00627582
C        5.24913903      10.30662878       4.64348675       0.00000000       0.00000000       0.00000000       0.00000000       0.02271078       0.00622631       0.00288552
C        6.45549533      10.12698278       5.31775900       0.00000000       0.00000000       0.00000000       0.00000000      -0.01783874      -0.03752546      -0.00187645
C        7.64638027       9.90755469       4.59846896       0.00000000       0.00000000       0.00000000       0.00000000       0.01509209      -0.05001042      -0.01741085
C        8.85341913       9.75571423       5.32151733       0.00000000       0.00000000       0.00000000       0.00000000       0.00013394      -0.01354704       0.00217247
C       -3.47168971       9.75655612       6.75065660       0.00000000       0.00000000       0.00000000       0.00000000       0.00645771      -0.00607544      -0.00378376
C       -2.25919702       9.66905308       7.47427649       0.00000000       0.00000000       0.00000000       0.00000000       0.00407631       0.01738619       0.01213653
C       -1.04365871       9.62776473       6.75033573       0.00000000       0.00000000       0.00000000       0.00000000      -0.00023696       0.04406442      -0.01268244
C        0.17247038       9.71809538       7.47448777       0.00000000       0.00000000       0.00000000       0.00000000      -0.00770435       0.06632352       0.00846198
C        1.36871747       9.93815412       6.75848490       0.00000000       0.00000000       0.00000000       0.00000000       0.01966856       0.10673224       0.00575595
C        2.56401435      10.24972707       7.41999032       0.00000000       0.00000000       0.00000000       0.00000000       0.03583257       0.09325454      -0.02685172
C        5.24335223      10.39565118       7.43068293       0.00000000       0.00000000       0.00000000       0.00000000      -0.00317650       0.00216162      -0.01946169
C        6.44944213      10.15414696       6.76118564       0.00000000       0.00000000       0.00000000       0.00000000       0.00147334      -0.02431971      -0.00586363
C        7.64356158       9.91881734       7.47468101       0.00000000       0.00000000       0.00000000       0.00000000       0.01924375      -0.01605096       0.00090092
C       -4.70585252       9.91630509       8.89369358       0.00000000       0.00000000       0.00000000       0.00000000       0.01396171       0.00312892      -0.00867876
C       -3.48285628       9.83431415       9.62026662       0.00000000       0.00000000       0.00000000       0.00000000       0.01259909       0.00507298       0.00858789
C       -2.25985695       9.73900091       8.90268191       0.00000000       0.00000000       0.00000000       0.00000000       0.00859784       0.01369047       0.00555256
C       -1.03520605       9.76195905       9.62297076       0.00000000       0.00000000       0.00000000       0.00000000       0.00150835       0.02457678      -0.00563705
C        0.19083632       9.76573499       8.89462360       0.00000000       0.00000000       0.00000000       0.00000000      -0.00171735       0.05978689       0.00000954
C        1.43192026       9.88513829       9.57480435       0.00000000       0.00000000       0.00000000       0.00000000      -0.00409435       0.06367274      -0.00040606
C        2.64868244      10.08170969       8.83032724       0.00000000       0.00000000       0.00000000       0.00000000       0.00369125       0.09193699      -0.02400577
C        3.89924091      10.09788706       9.54322641       0.00000000       0.00000000       0.00000000       0.00000000      -0.00516808       0.04976528       0.00553393
C        5.15177217      10.18027117       8.83233562       0.00000000       0.00000000       0.00000000       0.00000000       0.00904492       0.04085395       0.00206026
C        6.37305412      10.00170433       9.57507737       0.00000000       0.00000000       0.00000000       0.00000000       0.02102322       0.00548259       0.01429880
C        3.81026261      13.23750432       6.42697974       0.00000000       0.00000000       0.00000000       0.00000000      -0.04640955      -0.09742754       0.10662397
C        5.05645550      13.78005644       7.13224546       0.00000000       0.00000000       0.00000000       0.00000000      -0.02226518      -0.06621178       0.03292176
C        4.97419173      15.31464996       7.33540868       0.00000000       0.00000000       0.00000000       0.00000000      -0.00828898      -0.06781793      -0.00496571
C        3.67731120      15.71843918       8.04482773       0.00000000       0.00000000       0.00000000       0.00000000      -0.00131785      -0.03266560      -0.00290541
C        2.44981717      15.18358284       7.30100927       0.00000000       0.00000000       0.00000000       0.00000000      -0.02064113      -0.03865652       0.01568982
C        2.51922792      13.65025564       7.11754660       0.00000000       0.00000000       0.00000000       0.00000000      -0.03919446      -0.03923321       0.06011767
Pt       3.88591793      10.96291153       6.02326492       0.00000000       0.00000000       0.00000000       0.00000000      -0.01372823       0.18719318       0.01766564
H        1.52905263      15.44009773       7.84733641       0.00000000       0.00000000       0.00000000       0.00000000      -0.00633338      -0.01031810       0.01712026
H        3.79643204      13.67791402       5.40864830       0.00000000       0.00000000       0.00000000       0.00000000      -0.04483720      -0.16840321       0.05522592
H        5.96170830      13.54155784       6.55106987       0.00000000       0.00000000       0.00000000       0.00000000      -0.04850866      -0.07315084      -0.01845596
H        5.17078494      13.29464668       8.11446154       0.00000000       0.00000000       0.00000000       0.00000000       0.02522030      -0.05447054       0.03543279
H        5.84570688      15.65441544       7.91854783       0.00000000       0.00000000       0.00000000       0.00000000      -0.01242231      -0.06778524      -0.00923564
H        5.03543791      15.82705360       6.35912632       0.00000000       0.00000000       0.00000000       0.00000000      -0.00559656      -0.07717633      -0.01291357
H        3.61823962      16.81487685       8.13685337       0.00000000       0.00000000       0.00000000       0.00000000       0.00785001      -0.02171477      -0.03856849
H        3.68429818      15.32046541       9.07494441       0.00000000       0.00000000       0.00000000       0.00000000      -0.00282859      -0.00378656       0.01256108
H        2.37692605      15.67221130       6.31354407       0.00000000       0.00000000       0.00000000       0.00000000      -0.01373247      -0.05620431      -0.00325946
H        1.65913516      13.31303353       6.52027149       0.00000000       0.00000000       0.00000000       0.00000000      -0.03933675      -0.03041133       0.02692330
H        2.44839533      13.15714982       8.09964869       0.00000000       0.00000000       0.00000000       0.00000000      -0.07865386      -0.02707752       0.07082153
H        4.43034902      11.97404797       4.90492972       0.00000000       0.00000000       0.00000000       0.00000000       0.07557878      -0.26093975      -0.29117070
