66
Lattice="11.187398274830713 0.0 0.0 0.0 18.85089697201803 0.0 -5.593699159015355 0.0 9.688570543437708" Properties=species:S:1:pos:R:3:move_mask:L:1:initial_magmoms:R:1:forces:R:3 energy=-384.346491843462 stress="0.025264550579363686 0.00025676776503056036 -0.0020883521257546657 0.00025676776503056036 -1.539992477972538e-05 -0.0001279753487214253 -0.0020883521257546657 -0.0001279753487214253 0.022930741924915753" free_energy=-384.346491843462 pbc="T T T"
C        0.64591871       7.76879474       6.62977663  T       0.00000000      -0.03656453      -0.01849227       0.01902381
O        1.79808290       8.43849400       5.24067210  T       0.00000000      -0.01305242       0.01989930      -0.00846411
Pt       0.37888436      -0.00262205       0.21826239  F       0.00000000       0.01233856      -0.09345360      -0.02251658
Pt       3.17364125      -0.00415459       0.21762910  F       0.00000000       0.01520600      -0.00418924      -0.03939277
Pt       5.97065205      -0.00625030       0.21817898  F       0.00000000      -0.00891317      -0.00459819      -0.03028017
Pt       8.76892921      -0.00564604       0.21869584  F       0.00000000      -0.01329044      -0.06370986      -0.00120988
Pt      -1.02067585      -0.00395333       2.64038577  F       0.00000000      -0.00892185      -0.05675710       0.00898579
Pt       1.77543444      -0.00482674       2.63965120  F       0.00000000       0.02451178      -0.03073139       0.02210926
Pt       4.57219134      -0.00519988       2.64047253  F       0.00000000       0.00042793      -0.01358599       0.00834992
Pt       7.36973766      -0.00409586       2.64081782  F       0.00000000      -0.00325622      -0.04214701       0.00193083
Pt       0.37686452      -0.00535483       5.06168094  F       0.00000000       0.01340328       0.05216506       0.04786505
Pt       3.17432589      -0.00634883       5.06197071  F       0.00000000       0.00386850       0.05181876       0.01584826
Pt       5.97188532      -0.00369087       5.06260722  F       0.00000000      -0.01481582       0.02947987       0.02061496
Pt      -2.41927220      -0.00305980       5.06210875  F       0.00000000       0.01298653       0.01849516       0.03960431
Pt      -3.81650930      -0.00138603       7.48449973  F       0.00000000       0.01888928       0.01868773       0.00320334
Pt      -1.02166267      -0.00504593       7.48397360  F       0.00000000       0.01327876       0.09174933      -0.01617592
Pt       1.77577727      -0.00729010       7.48430095  F       0.00000000      -0.02394377       0.03505901      -0.02667301
Pt       4.57420743      -0.00524303       7.48472679  F       0.00000000       0.01106028       0.00680543      -0.04196342
Pt       8.78008874       2.27723633       1.83254207  T       0.00000000       0.00160534      -0.00338509      -0.00256941
Pt       7.37976335       2.28390990       4.25447924  T       0.00000000       0.00158501      -0.00205600      -0.00057503
Pt       4.59588475       2.26657113       9.09295550  T       0.00000000      -0.00282291       0.00054893      -0.00291700
Pt       5.97997827       2.27862028       1.82984168  T       0.00000000       0.00586686       0.00457103       0.00387167
Pt       3.19334259       2.28084675       1.83764166  T       0.00000000       0.00333606      -0.00430249      -0.00314243
Pt       0.39834604       2.26904810       1.83522260  T       0.00000000      -0.00309025       0.00257636       0.00794989
Pt       5.97649332       2.30110641       6.66162592  T       0.00000000       0.00487398       0.00189094       0.00389979
Pt      -3.79508279       2.29104708       9.08869904  T       0.00000000      -0.00056909       0.00066028      -0.00639638
Pt       4.57790157       2.30266258       4.25866715  T       0.00000000       0.00444626       0.00229013      -0.00529919
Pt      -1.01100398       2.29791726       9.09013257  T       0.00000000       0.00062644      -0.00491476      -0.00096095
Pt      -1.00642893       2.28779728       4.26215250  T       0.00000000       0.00390318       0.00237010      -0.00453743
Pt       1.78625095       2.27635543       9.09079753  T       0.00000000      -0.00272413      -0.00432017      -0.00734530
Pt       3.18793046       2.29601027       6.66870064  T       0.00000000      -0.00503325      -0.00703452      -0.00371033
Pt      -2.40124102       2.30980552       6.67391109  T       0.00000000      -0.00007639       0.00022239      -0.00329059
Pt       1.78918399       2.29600882       4.26062072  T       0.00000000       0.00177034      -0.00103595      -0.00600907
Pt       0.38728034       2.31563158       6.67412568  T       0.00000000       0.00253289       0.00538690      -0.00239557
Pt       6.01949037       4.54529958       8.27087502  T       0.00000000      -0.00007947       0.00245492      -0.00091417
Pt      10.21834297       4.51746794       1.01467802  T       0.00000000      -0.00134553       0.00708815       0.00326223
Pt       8.79275084       4.54332064       3.44323441  T       0.00000000      -0.00214206      -0.01078620      -0.00314637
Pt       4.59554073       4.55061168       1.02572006  T       0.00000000      -0.00224320      -0.00008911      -0.00089050
Pt       7.39831587       4.53574857       1.02081932  T       0.00000000      -0.00007062       0.00316021      -0.00303794
Pt       5.99189850       4.55164110       3.44623599  T       0.00000000      -0.00878416       0.00665525      -0.00203900
Pt       7.38855594       4.56228278       5.86189161  T       0.00000000       0.00325354      -0.00182129      -0.00093104
Pt       1.82317257       4.52891433       1.01008163  T       0.00000000       0.00101023      -0.00023216      -0.00515430
Pt       3.19036124       4.58071704       3.46929304  T       0.00000000       0.00585206       0.00218298      -0.00172268
Pt      -2.35861874       4.60386080       8.25985833  T       0.00000000      -0.00049425      -0.00423537      -0.00249640
Pt       3.22158563       4.53064345       8.30200565  T       0.00000000       0.00039187       0.00190095      -0.00011664
Pt       4.55932253       4.62883435       5.84894143  T       0.00000000      -0.00173977       0.01265465       0.00126681
Pt       0.39491706       4.55135194       3.44584681  T       0.00000000       0.00235912       0.00972736       0.00129803
Pt       0.40350118       4.58573850       8.28581872  T       0.00000000       0.00307157      -0.00205075      -0.00084081
Pt       1.79610555       4.59873961       5.87903644  T       0.00000000       0.01225449      -0.00120305      -0.00170356
Pt      -0.97752524       4.62609562       5.85328004  T       0.00000000       0.00334254      -0.00485490       0.00197656
Pt      -1.01408484       6.83323790       2.57313790  T       0.00000000      -0.00673963      -0.00401584      -0.00271810
Pt       4.59854635       6.85227433       2.64406176  T       0.00000000      -0.00468290       0.00037408       0.01021824
Pt      -2.44590586       6.85140535       5.02702234  T       0.00000000       0.00720559       0.00304361      -0.00484565
Pt       6.01034512       6.84172932       0.28458299  T       0.00000000       0.00570267      -0.00174639       0.00056513
Pt       0.44665097       6.84514664       0.19340365  T       0.00000000      -0.00241858       0.00343241       0.00503954
Pt       7.38633557       6.84609385       2.64970808  T       0.00000000      -0.00677338       0.00612828       0.00691986
Pt       3.23838438       6.87148169       0.19230007  T       0.00000000      -0.00023852      -0.00238574      -0.00599852
Pt       4.67913745       6.86353171       7.53550715  T       0.00000000       0.00102219       0.00058233       0.00100203
Pt       8.85367369       6.83539451       0.28457626  T       0.00000000      -0.00765271       0.00368155       0.00290389
Pt       6.00088597       6.87031959       5.06669496  T       0.00000000       0.00279823      -0.00313140       0.00703479
Pt      -3.75534947       6.88279699       7.47218713  T       0.00000000      -0.00697169      -0.00010320      -0.00260882
Pt       1.82284626       6.80306278       2.54279655  T       0.00000000       0.00112973      -0.00216567      -0.00624489
Pt       3.24194308       6.99571048       5.13289341  T       0.00000000      -0.00665735      -0.00394534       0.01722937
Pt       1.95990314       6.87541733       7.66924973  T       0.00000000       0.01362053      -0.00383571       0.01453607
Pt      -0.99759220       7.06323337       7.49196151  T       0.00000000       0.00533353       0.01518634       0.00142870
Pt       0.33230597       6.93352428       4.88586730  T       0.00000000      -0.02875677      -0.02161405       0.00329612
