66
Lattice="11.535195231870897 0.0 0.0 0.0 19.063792730541298 0.0 -5.767597615935449 0.0 9.98977233478067" Properties=species:S:1:pos:R:3:move_mask:L:1:initial_magmoms:R:1:forces:R:3 energy=-203.03242464363575 stress="0.0009163557640778601 6.945627624622419e-05 -0.00028389381103663007 6.945627624622419e-05 -0.008258140316808922 -2.9133643133596072e-05 -0.00028389381103663007 -2.9133643133596072e-05 0.000541351205571705" free_energy=-203.03242464363575 pbc="T T T"
H        2.13548152      10.30600556       6.59462464  T       0.00000000      -0.00494763       0.02351628       0.00250008
H        1.62870603      10.29865509       5.64622361  T       0.00000000      -0.02049523       0.04431312       0.00787513
Au       0.23070967       1.89764806       0.40002045  F       0.00000000       0.00093386      -0.47524413      -0.00218078
Au       3.11466997       1.89618014       0.39952096  F       0.00000000      -0.00168522      -0.47834110      -0.00338723
Au       5.99906861       1.89724772       0.39890160  F       0.00000000      -0.00262673      -0.47191242       0.00335663
Au       8.88234834       1.89839154       0.39922127  F       0.00000000       0.00241513      -0.47347425       0.00369152
Au      -1.21064758       1.89850593       2.89726374  F       0.00000000      -0.00223666      -0.47438612      -0.00392638
Au       1.67258024       1.89783869       2.89715385  F       0.00000000       0.00060286      -0.47686714      -0.00499955
Au       4.55675394       1.89669487       2.89692409  F       0.00000000       0.00278164      -0.47370566      -0.00449873
Au       7.44138328       1.89715240       2.89656446  F       0.00000000      -0.00290372      -0.46725195       0.00136535
Au      -2.65200483       1.89732397       5.39440713  F       0.00000000      -0.00437364      -0.47228001       0.00094536
Au       0.23107880       1.89848686       5.39442711  F       0.00000000      -0.00274394      -0.47705284      -0.00004709
Au       3.11460076       1.89802933       5.39454699  F       0.00000000       0.00171448      -0.47236085      -0.00060051
Au       5.99870525       1.89667580       5.39447706  F       0.00000000       0.00513021      -0.47293991       0.00024855
Au      -4.09457904       1.89616108       7.89211994  F       0.00000000       0.00121358      -0.47845280       0.00375984
Au      -1.21064181       1.89722865       7.89176031  F       0.00000000      -0.00473467      -0.47544025       0.00281683
Au       1.67297243       1.89841061       7.89180027  F       0.00000000      -0.00121412      -0.47722408       0.00271331
Au       4.55649440       1.89774337       7.89215990  F       0.00000000       0.00477513      -0.47619208       0.00236980
Au       0.23053088       4.24956723       2.06362723  F       0.00000000       0.00320961       0.45463509       0.01628013
Au       3.11499296       4.24666953       2.06233855  F       0.00000000       0.00627354       0.48126609       0.04084369
Au       5.99962807       4.24851872       2.06346739  F       0.00000000       0.00049000       0.45891859       0.00601487
Au       8.88267132       4.25073012       2.06439644  F       0.00000000      -0.00454847       0.45505062       0.00204390
Au      -1.21182994       4.24903344       4.56142995  F       0.00000000       0.00663663       0.47395328       0.01951635
Au       1.67239568       4.24625013       4.56087052  F       0.00000000       0.02202255       0.47976981       0.00817969
Au       4.55887065       4.24546851       4.56083056  F       0.00000000      -0.02099223       0.49920156       0.01549114
Au       7.44190237       4.24853778       4.56171965  F       0.00000000      -0.00563914       0.45841954      -0.00238518
Au      -2.65314681       4.24792774       7.06022165  F       0.00000000       0.03050102       0.48377880      -0.01531316
Au       0.22998872       4.24684111       7.06011176  F       0.00000000      -0.00002076       0.49314043      -0.00138429
Au       3.11559279       4.24630732       7.06052134  F       0.00000000       0.00717907       0.48258924      -0.02497177
Au       6.00066047       4.24668860       7.06054132  F       0.00000000      -0.03430608       0.48486661      -0.02795734
Au      -4.09479244       4.24886187       9.55724516  F       0.00000000       0.00707976       0.44307537      -0.00554904
Au      -1.21161077       4.24790868       9.55685556  F       0.00000000       0.02652660       0.48064713      -0.01796604
Au       1.67303011       4.24910970       9.55795444  F       0.00000000      -0.01264720       0.47127803      -0.01307796
Au       4.55731916       4.24960536       9.55778461  F       0.00000000      -0.01117326       0.45228028      -0.01006466
Au       1.67944587       6.67506120       1.22762244  T       0.00000000       0.00306497      -0.00073225       0.00236994
Au       4.55955094       6.67730624       1.22880131  T       0.00000000      -0.00007136       0.00421652       0.00481324
Au       7.44428377       6.68615275       1.22989322  T       0.00000000      -0.00039222      -0.00400653      -0.00480096
Au      10.33038723       6.68099128       1.22998932  T       0.00000000       0.00405094      -0.00121102      -0.00169012
Au       0.23797741       6.68382920       3.73028304  T       0.00000000       0.00041973       0.00127471      -0.00109417
Au       3.11704749       6.69894302       3.73834529  T       0.00000000      -0.00045987       0.00309049       0.00013005
Au       6.00003604       6.68284688       3.72910793  T       0.00000000      -0.00067368      -0.00414066       0.00036541
Au       8.88746042       6.68536709       3.72880239  T       0.00000000       0.00545978       0.00021574       0.00284880
Au      -1.19505566       6.70140319       6.22182021  T       0.00000000      -0.00852736      -0.01174641      -0.00536989
Au       1.67782463       6.70132549       6.22544165  T       0.00000000       0.00266829       0.00859328       0.00260392
Au       4.55031823       6.70268478       6.22050140  T       0.00000000      -0.00164445      -0.00693771       0.00180521
Au       7.44650348       6.67757029       6.22591981  T       0.00000000      -0.00236497       0.00344978      -0.00067630
Au      -2.64503569       6.68134140       8.71979060  T       0.00000000       0.00778292      -0.00172748      -0.00531357
Au       0.24222237       6.69971291       8.71660326  T       0.00000000       0.01176202      -0.00212746       0.00426154
Au       3.11804216       6.68307201       8.72028935  T       0.00000000      -0.00658995       0.00462460      -0.00293091
Au       6.00544338       6.67455766       8.72065362  T       0.00000000       0.00266800      -0.00017393      -0.00256020
Au       0.25043375       9.18724617       0.38855986  T       0.00000000      -0.00512226      -0.00756069       0.00289507
Au       3.12567967       9.18485331       0.38138901  T       0.00000000       0.01860105      -0.00427702       0.00494755
Au       5.99523437       9.18205900       0.42079740  T       0.00000000       0.00683830      -0.00496843      -0.00123438
Au       8.90958618       9.18508731       0.43151817  T       0.00000000      -0.00674338      -0.00347028      -0.01084717
Au      -1.21660952       9.18736494       2.86532326  T       0.00000000      -0.00362192      -0.00562994      -0.00165138
Au       1.68028168       9.16260497       2.84361387  T       0.00000000       0.00283443      -0.00156991       0.00546661
Au       4.57842828       9.18082970       2.87182082  T       0.00000000      -0.00969363      -0.00648448       0.00336407
Au       7.44871300       9.18643326       2.89803902  T       0.00000000      -0.00725455      -0.00124499       0.00331746
Au      -2.66178213       9.18456943       5.39082215  T       0.00000000      -0.01747095      -0.00702676      -0.00587185
Au       0.15956791       9.21374471       5.32824373  T       0.00000000      -0.00319355       0.00034288      -0.00243958
Au       3.20909179       9.25358965       5.34090355  T       0.00000000      -0.01266658       0.01766689       0.00407575
Au       6.03488025       9.17968521       5.39203361  T       0.00000000      -0.00984436      -0.00232363       0.00535048
Au      -4.07511946       9.18441763       7.88998478  T       0.00000000       0.00993714      -0.00451543      -0.01030497
Au      -1.20458467       9.18488051       7.88997482  T       0.00000000       0.01699790       0.00362684      -0.00601097
Au       1.69143725       9.21603943       7.99729885  T       0.00000000       0.00201590       0.00480559       0.00973758
Au       4.60144666       9.15969007       7.91469724  T       0.00000000       0.00903668       0.00239369       0.00274114
