66
Lattice="11.535195231870897 0.0 0.0 0.0 19.063792730541298 0.0 -5.767597615935449 0.0 9.98977233478067" Properties=species:S:1:pos:R:3:move_mask:L:1:initial_magmoms:R:1:forces:R:3 energy=-204.0037397518754 stress="0.002317523037591784 1.7777108794274295e-05 3.896019440306377e-06 1.7777108794274295e-05 -0.008128668862557652 -5.228845418502269e-06 3.896019440306377e-06 -5.228845418502269e-06 0.0023304233583006074" free_energy=-204.0037397518754 pbc="T T T"
H        1.73629063      12.09491722       6.62516865  T       0.00000000      -0.00626034       0.04581667      -0.00353408
H        1.35942073      12.28163443       6.00334589  T       0.00000000      -0.00316670       0.04849902       0.00664302
Au       0.23070390       1.90637927       0.39959089  F       0.00000000      -0.00032224      -0.45495876       0.00013011
Au       3.11450271       1.90637927       0.39959089  F       0.00000000       0.00023067      -0.45501603       0.00016671
Au       5.99830152       1.90637927       0.39959089  F       0.00000000       0.00006599      -0.45630424       0.00012713
Au       8.88210033       1.90637927       0.39959089  F       0.00000000      -0.00006311      -0.45634569       0.00010264
Au      -1.21119550       1.90637927       2.89703398  F       0.00000000      -0.00012715      -0.45634070       0.00000156
Au       1.67260331       1.90637927       2.89703398  F       0.00000000      -0.00004082      -0.45662480       0.00000431
Au       4.55640212       1.90637927       2.89703398  F       0.00000000       0.00010980      -0.45643922       0.00002871
Au       7.44020092       1.90637927       2.89703398  F       0.00000000      -0.00000492      -0.45589886       0.00000052
Au      -2.65309490       1.90637927       5.39447706  F       0.00000000      -0.00009341      -0.45630886      -0.00013095
Au       0.23070390       1.90637927       5.39447706  F       0.00000000      -0.00003785      -0.45746185      -0.00003768
Au       3.11450271       1.90637927       5.39447706  F       0.00000000      -0.00000041      -0.45758676       0.00000291
Au       5.99830152       1.90637927       5.39447706  F       0.00000000       0.00004233      -0.45642677      -0.00011726
Au      -4.09499431       1.90637927       7.89192014  F       0.00000000      -0.00007504      -0.45512921      -0.00030415
Au      -1.21119550       1.90637927       7.89192014  F       0.00000000      -0.00005420      -0.45662782       0.00001390
Au       1.67260331       1.90637927       7.89192014  F       0.00000000       0.00001503      -0.45758240       0.00003117
Au       4.55640212       1.90637927       7.89192014  F       0.00000000       0.00000465      -0.45679124       0.00003930
Au       0.23069814       4.26098644       2.06455628  F       0.00000000      -0.00070196       0.45292610      -0.00458885
Au       3.11449695       4.26098644       2.06455628  F       0.00000000       0.00059136       0.45246984      -0.00512879
Au       5.99829575       4.26098644       2.06455628  F       0.00000000       0.00144016       0.45890340       0.00026091
Au       8.88209456       4.26098644       2.06455628  F       0.00000000      -0.00113758       0.45935842       0.00074627
Au      -1.21120127       4.26098644       4.56199936  F       0.00000000      -0.00451793       0.45139708      -0.00241445
Au       1.67259754       4.26098644       4.56199936  F       0.00000000      -0.00043156       0.44382395      -0.00161100
Au       4.55639635       4.26098644       4.56199936  F       0.00000000       0.00476991       0.44979420      -0.00284087
Au       7.44019516       4.26098644       4.56199936  F       0.00000000       0.00052741       0.45880515      -0.00118105
Au      -2.65310067       4.26098644       7.05944245  F       0.00000000      -0.00381313       0.45359377       0.00163753
Au       0.23069814       4.26098644       7.05944245  F       0.00000000      -0.00203198       0.44360584       0.00055497
Au       3.11449695       4.26098644       7.05944245  F       0.00000000       0.00119674       0.44275231       0.00052516
Au       5.99829575       4.26098644       7.05944245  F       0.00000000       0.00503549       0.45217448       0.00174583
Au      -4.09500007       4.26098644       9.55688553  F       0.00000000       0.00041083       0.45556030       0.00015786
Au      -1.21120127       4.26098644       9.55688553  F       0.00000000      -0.00360749       0.45330752       0.00258072
Au       1.67259754       4.26098644       9.55688553  F       0.00000000      -0.00031049       0.44995834       0.00580219
Au       4.55639635       4.26098644       9.55688553  F       0.00000000       0.00385972       0.45231116       0.00339099
Au       1.67270462       6.69897532       1.23095529  T       0.00000000       0.00024372      -0.00121050       0.00079652
Au       4.55684965       6.69892069       1.23200454  T       0.00000000       0.00116597       0.00018240       0.00051387
Au       7.44046704       6.69950352       1.23221339  T       0.00000000       0.00035543      -0.00016029       0.00027710
Au      10.32399156       6.69911152       1.23242815  T       0.00000000      -0.00084523       0.00125538       0.00069635
Au       0.23041769       6.69406395       3.72613776  T       0.00000000      -0.00034617      -0.00080401       0.00098628
Au       3.11525881       6.69348589       3.72619166  T       0.00000000       0.00041944      -0.00078983       0.00060309
Au       5.99908161       6.69886318       3.72913694  T       0.00000000       0.00041211      -0.00014754       0.00013455
Au       8.88218696       6.69948054       3.72940446  T       0.00000000       0.00029241      -0.00020906      -0.00024560
Au      -1.21369091       6.69428217       6.22796526  T       0.00000000       0.00041484      -0.00229064      -0.00063621
Au       1.67274743       6.69079371       6.22651252  T       0.00000000       0.00054259      -0.00290837       0.00086168
Au       4.55979130       6.69329169       6.22816452  T       0.00000000      -0.00049835      -0.00039017      -0.00035226
Au       7.44084399       6.69895396       6.22680599  T       0.00000000       0.00015957      -0.00033125      -0.00123003
Au      -2.65412077       6.69895158       8.72518097  T       0.00000000       0.00093373      -0.00320653      -0.00065181
Au       0.22838298       6.69367181       8.72637731  T       0.00000000       0.00116451      -0.00131942      -0.00028857
Au       3.11766321       6.69321574       8.72666416  T       0.00000000      -0.00109408       0.00084126      -0.00093627
Au       5.99971937       6.69860232       8.72522379  T       0.00000000      -0.00036533      -0.00087646      -0.00044710
Au       0.23125676       9.19438957       0.40011175  T       0.00000000       0.00102885      -0.00107374       0.00018372
Au       3.11494430       9.19382193       0.40018935  T       0.00000000       0.00038383      -0.00048340      -0.00097207
Au       5.99866875       9.19580393       0.39953906  T       0.00000000       0.00131554      -0.00231428      -0.00103635
Au       8.88367801       9.19586850       0.40043760  T       0.00000000      -0.00069143      -0.00269526      -0.00179892
Au      -1.20988922       9.19648507       2.89708768  T       0.00000000       0.00059880      -0.00216429       0.00107719
Au       1.67366591       9.19238641       2.89801676  T       0.00000000      -0.00005585      -0.00113851       0.00180661
Au       4.55769850       9.19402776       2.89607916  T       0.00000000       0.00043948      -0.00191000       0.00099753
Au       7.44152908       9.19398416       2.89684565  T       0.00000000       0.00040372      -0.00053639       0.00024016
Au      -2.65169739       9.19592940       5.39480868  T       0.00000000       0.00155149      -0.00161130       0.00000542
Au       0.22929124       9.17095555       5.39256967  T       0.00000000       0.00046627      -0.00022224       0.00020035
Au       3.11982674       9.16795067       5.39275755  T       0.00000000      -0.00093425       0.00136445       0.00012385
Au       6.00100958       9.19331152       5.39431027  T       0.00000000      -0.00010535      -0.00226241       0.00008263
Au      -4.09434945       9.19365731       7.89207668  T       0.00000000       0.00098643      -0.00031161       0.00017444
Au      -1.21051786       9.19046918       7.89194653  T       0.00000000       0.00200403      -0.00075810      -0.00042682
Au       1.67446479       9.16600753       7.89635374  T       0.00000000      -0.00009281       0.00711483      -0.00315659
Au       4.55755443       9.19166005       7.89183132  T       0.00000000      -0.00175567      -0.00184742      -0.00038801
