67
Lattice="12.322695179431246 0.0 0.0 0.0 19.999992668199706 0.0 -6.161539589702837 0.0 10.671541289381649" Properties=species:S:1:pos:R:3:initial_magmoms:R:1:forces:R:3 atst_endpoint_result=optimized energy=-539.3829747438431 stress="-0.011511129821813328 2.7466843525832545e-05 -0.0003555491887266356 2.7466843525832545e-05 0.00011303838551375263 -0.00013551319297760506 -0.0003555491887266356 -0.00013551319297760506 0.0013863220630072766" free_energy=-539.3829747438431 pbc="T T T"
C        0.24620139       9.94604617       0.47666092       0.00000000       0.00835561       0.01169384       0.00883450
C        1.47490647       9.94415992       1.20742690       0.00000000      -0.02382837      -0.00348924      -0.01361270
C        2.71390825       9.92587231       0.51567957       0.00000000       0.00238733       0.00764494       0.01617183
C        3.94191631       9.96357809       1.25066162       0.00000000      -0.00941110       0.00239278      -0.01289422
C        5.17017749       9.91441528       0.51662239       0.00000000       0.02197453       0.01492941       0.00036877
C        6.40888331       9.91382325       1.20894609       0.00000000       0.01224249       0.00233717      -0.01420944
C        7.63776744       9.93291388       0.47766720       0.00000000      -0.00434568      -0.00312027      -0.02431058
C        8.87471394       9.91325589       1.17145834       0.00000000       0.02675259       0.01168343      -0.01166932
C       10.10275095       9.98110330       0.43756598       0.00000000      -0.02014451      -0.00373377      -0.01455106
C       11.33070588       9.93099275       1.17019711       0.00000000       0.00025782       0.00047570       0.00398561
C       -0.99902212       9.85104667       2.59120781       0.00000000       0.02594063      -0.00777354       0.02254648
C        0.22319718       9.89279716       3.31812510       0.00000000      -0.01036353      -0.00881670      -0.02013085
C        1.46310823       9.97956964       2.63175504       0.00000000       0.01570124      -0.00984419       0.03722954
C        2.68372771      10.10980402       3.37480408       0.00000000       0.02220304       0.00517850      -0.00899334
C        3.94131175      10.07067262       2.67161154       0.00000000      -0.00759983      -0.00540693       0.00987830
C        5.19520366      10.03599535       3.37774757       0.00000000      -0.01629115       0.00209762      -0.00999008
C        6.41714046       9.91031166       2.63489922       0.00000000      -0.00343581      -0.01072403       0.00459242
C        7.65797056       9.81567027       3.31944414       0.00000000      -0.02128439       0.00507277      -0.00237041
C        8.88074224       9.81466286       2.59166085       0.00000000      -0.01149757       0.00220681       0.01611731
C       10.10321240       9.77502186       3.31096592       0.00000000      -0.01124051       0.00516899      -0.00253428
C       -2.21919330       9.70374265       4.73879418       0.00000000       0.00407404       0.03310728       0.01488626
C       -1.01022408       9.74468167       5.46483279       0.00000000      -0.01184410       0.01573302       0.01371666
C        0.19417762       9.86410205       4.73719955       0.00000000       0.00431149      -0.00341026       0.00553696
C        1.38751459      10.04993655       5.45597225       0.00000000      -0.00843637      -0.01200549      -0.02657946
C        2.58365253      10.25319691       4.77622884       0.00000000      -0.02010449      -0.00789268      -0.00737795
C        5.29117273      10.12654572       4.78524092       0.00000000       0.02980007       0.00682003       0.02501434
C        6.49018104       9.92723689       5.46034713       0.00000000      -0.02343788       0.02085429      -0.02244842
C        7.68505533       9.76923214       4.73929622       0.00000000       0.03472608       0.02043327      -0.01473326
C        8.89435063       9.69580984       5.46602514       0.00000000       0.00366501      -0.00005604      -0.01095973
C       -3.42949635       9.71130224       6.89529330       0.00000000       0.01883811      -0.00187588       0.00737041
C       -2.21796928       9.72334824       7.62054995       0.00000000      -0.02351317       0.01948828      -0.01129533
C       -1.00878294       9.75272465       6.89429746       0.00000000       0.03883425      -0.00417763      -0.01535869
C        0.19982671       9.87494243       7.62024358       0.00000000       0.00074694      -0.00779214      -0.01212466
C        1.39581634      10.05501936       6.90281974       0.00000000      -0.00035654      -0.00607969      -0.01065018
C        2.60651146      10.26758756       7.56975167       0.00000000       0.00267807      -0.01483569      -0.00457755
C        5.28600058      10.23785860       7.57390891       0.00000000       0.00922598       0.00279403      -0.00755821
C        6.48527839       9.97554202       6.90567004       0.00000000       0.00280502       0.00166874      -0.00639702
C        7.68509504       9.81540515       7.62271101       0.00000000      -0.02936140       0.01351191       0.00041244
C       -4.66443158       9.87306502       9.04046670       0.00000000       0.02126857      -0.00097188      -0.01255626
C       -3.44108524       9.84802483       9.76639210       0.00000000      -0.00821658       0.00902250       0.00558809
C       -2.21841229       9.79844915       9.04729163       0.00000000       0.01186128      -0.00688529       0.00166293
C       -0.99549047       9.85718598       9.76574405       0.00000000      -0.01684598      -0.01306190       0.01176996
C        0.22730276       9.90045077       9.03948208       0.00000000      -0.00018293       0.00244967      -0.00456111
C        1.46965090       9.98793963       9.72254247       0.00000000      -0.02658232      -0.00569414       0.00846179
C        2.69012755      10.13518890       8.97942995       0.00000000       0.00544833      -0.00577054      -0.00891051
C        3.94216287      10.11330072       9.68981345       0.00000000      -0.00767874       0.00356930       0.02683083
C        5.19586498      10.12003643       8.98122073       0.00000000       0.04429138       0.00665677      -0.00499765
C        6.41702558       9.97369659       9.72280432       0.00000000      -0.02054224      -0.00698044       0.01542001
C        3.77836414      13.12616870       6.17950690       0.00000000       0.00895399      -0.00117744       0.02071693
C        4.99598984      13.74455015       6.85597309       0.00000000       0.00488058      -0.02039203      -0.04857588
C        4.81939927      15.27561544       6.91984210       0.00000000      -0.03013280      -0.00710678       0.01961429
C        3.49162268      15.66663691       7.58417664       0.00000000      -0.02096927       0.03293729       0.01681113
C        2.28655792      14.96279723       6.94334421       0.00000000      -0.00031167       0.00649425       0.02359565
C        2.47057312      13.43308867       6.90541059       0.00000000      -0.00360916      -0.01181629      -0.03473703
Pt       3.95668090      10.77027275       6.15694653       0.00000000      -0.00369341      -0.01491333      -0.02376377
H        1.36843823      15.19435983       7.50464126       0.00000000       0.02080694       0.00136806       0.00997627
H        3.68276208      13.57195813       5.16539684       0.00000000       0.00052107      -0.01062450      -0.00249649
H        5.91180550      13.49302233       6.29826171       0.00000000      -0.00238008      -0.00590323       0.00373940
H        5.11494141      13.33128757       7.86970134       0.00000000       0.02022803      -0.01792015       0.02911197
H        5.66411374      15.71719744       7.46829310       0.00000000       0.00040513      -0.00259229       0.01776825
H        4.85733854      15.68365759       5.89587840       0.00000000       0.00987725      -0.00105001      -0.00819251
H        3.35536034      16.75833872       7.53046059       0.00000000       0.00669898      -0.02222246       0.00512433
H        3.53127410      15.40694008       8.65656750       0.00000000       0.00274834      -0.00457435      -0.00095232
H        2.13155562      15.33260603       5.91578266       0.00000000       0.00478531       0.00143545       0.00044839
H        1.62167084      12.96094576       6.39046010       0.00000000      -0.02702865       0.00241335      -0.01219168
H        2.49261970      13.02871604       7.92921394       0.00000000      -0.00926640      -0.02195093       0.00242584
H        4.30030732      12.00826885       5.18182454       0.00000000      -0.01435884       0.02100252       0.04153458
