67
Lattice="12.322695179431246 0.0 0.0 0.0 19.999992668199706 0.0 -6.161539589702837 0.0 10.671541289381649" Properties=species:S:1:pos:R:3:initial_magmoms:R:1:forces:R:3 atst_endpoint_result=optimized energy=-539.1149364709854 pbc="T T T"
C        0.23902969       9.88067433       0.47633661       0.00000000      -0.01849413      -0.03236673      -0.02573133
C        1.46784347       9.86387166       1.21087067       0.00000000      -0.02799721      -0.04405490      -0.04138783
C        2.70727584       9.84475190       0.52027869       0.00000000      -0.00939943       0.01226394      -0.02457901
C        3.93558462       9.88005104       1.25613427       0.00000000       0.02245784       0.06362894      -0.02651840
C        5.16364150       9.82199904       0.52088311       0.00000000       0.03193755       0.02941378      -0.05938688
C        6.40399261       9.84568825       1.20977630       0.00000000       0.01943531       0.04420655      -0.01375688
C        7.63300886       9.83684900       0.47403976       0.00000000       0.01098678      -0.00533737      -0.01083320
C        8.86881088       9.85006394       1.17033490       0.00000000       0.04031571      -0.03579583      -0.04303496
C       10.09659159       9.89861558       0.43529394       0.00000000       0.01407047      -0.01983818      -0.03252901
C       11.32456501       9.86389793       1.17169279       0.00000000      -0.00908835      -0.00964512      -0.02860669
C       -1.00417162       9.78220553       2.59379902       0.00000000       0.01273370      -0.01902822      -0.03554045
C        0.21849665       9.78271681       3.32121571       0.00000000      -0.00447873      -0.05193900      -0.02962530
C        1.45983894       9.86341758       2.63700043       0.00000000      -0.01721802       0.01567801      -0.03464993
C        2.68075343       9.98770788       3.38150611       0.00000000       0.04719992       0.18241770      -0.01850400
C        3.93638769      10.01183391       2.67678657       0.00000000      -0.08348181      -0.03707708      -0.14739593
C        5.19109423      10.06260136       3.37486573       0.00000000       0.02285177      -0.08661382       0.16006767
C        6.41275480       9.91651475       2.63588744       0.00000000       0.04324842      -0.02735540      -0.10128075
C        7.65474812       9.84431463       3.31919301       0.00000000      -0.03512043       0.06083389       0.03585206
C        8.87534966       9.79679527       2.59307053       0.00000000       0.00846348       0.00925198      -0.03089715
C       10.09654009       9.73986458       3.31296184       0.00000000       0.01650353      -0.01676402       0.00786495
C       -2.22622072       9.66682165       4.74064982       0.00000000       0.01133126       0.02891381       0.01863894
C       -1.01660140       9.63590523       5.46701931       0.00000000       0.02826212      -0.00960485      -0.01033514
C        0.19234526       9.71342222       4.73912666       0.00000000       0.05076739      -0.04105594      -0.02058107
C        1.39513702       9.84450954       5.45610935       0.00000000      -0.00112545       0.13593351      -0.03499623
C        2.58727052      10.11102326       4.78587182       0.00000000      -0.06144217       0.14070367      -0.03179264
C        5.29082472      10.21018527       4.78073924       0.00000000      -0.01883522       0.03417631       0.06924589
C        6.49657080      10.03165069       5.45826450       0.00000000      -0.26215345      -0.05356065      -0.10760070
C        7.68500910       9.84579293       4.73905653       0.00000000       0.06251366      -0.08893834      -0.02805914
C        8.88806355       9.71571603       5.46659131       0.00000000       0.02445883       0.01951707      -0.00577986
C       -3.43898086       9.70979179       6.89544159       0.00000000       0.01071977       0.01360874       0.02913188
C       -2.22713647       9.65080330       7.62143216       0.00000000       0.03028435       0.02018706       0.00129853
C       -1.01330363       9.62332339       6.89635776       0.00000000       0.03708364       0.01266702       0.00568892
C        0.20449271       9.68694526       7.62053891       0.00000000      -0.03175792       0.01150583      -0.03989758
C        1.40895427       9.83678330       6.89918921       0.00000000      -0.16162531       0.09717965       0.01301351
C        2.62129232      10.09735148       7.54798703       0.00000000      -0.23125331       0.11194527       0.20485772
C        5.26465032      10.24835507       7.56495466       0.00000000       0.15940875       0.09453940       0.09965317
C        6.47788434      10.03935937       6.89968413       0.00000000       0.04717674       0.00027258       0.12676210
C        7.67413227       9.83753188       7.62057843       0.00000000       0.04739314       0.01426894      -0.03463310
C       -4.67227617       9.84745864       9.04036093       0.00000000      -0.02163047      -0.00109210      -0.04605705
C       -3.44973932       9.78825989       9.76905758       0.00000000       0.01209356      -0.01697439      -0.03663416
C       -2.22734223       9.71258832       9.05024970       0.00000000       0.03519804       0.00219482      -0.02108167
C       -1.00265282       9.73859746       9.77001362       0.00000000       0.03533966      -0.01137929      -0.06414595
C        0.22271708       9.73971349       9.04054758       0.00000000       0.03479186       0.00078339      -0.03953042
C        1.46865186       9.83245009       9.71557037       0.00000000      -0.00616576       0.02135901       0.02170287
C        2.69046288       9.96938443       8.96333343       0.00000000      -0.05151852       0.13306460       0.15451485
C        3.93474206       9.99883271       9.68292344       0.00000000      -0.00303373       0.07210941       0.01479471
C        5.18444158      10.05619639       8.96953632       0.00000000       0.04859126       0.13453902       0.05855495
C        6.40624482       9.92513046       9.71929082       0.00000000       0.02422627       0.00775517       0.02182919
C        3.73776834      13.42689544       6.03094941       0.00000000       0.12897365      -0.16361362      -0.06608829
C        4.97304011      13.97300278       6.72446460       0.00000000      -0.00195139      -0.06626322      -0.00083823
C        4.86459145      15.50755036       6.87257927       0.00000000      -0.01009646      -0.06468780      -0.04461072
C        3.56174322      15.91756015       7.56546141       0.00000000       0.00824115      -0.02230179       0.00899307
C        2.33059473      15.29041895       6.89915942       0.00000000       0.04532581       0.00438240      -0.04816264
C        2.44714396      13.74526085       6.77399436       0.00000000      -0.02045518      -0.10681103      -0.00581541
Pt       3.91398884      10.78069168       6.14926262       0.00000000       0.08646634      -0.59053018       0.07212388
H        1.43267676      15.53166512       7.48573059       0.00000000      -0.07088254      -0.04692750       0.03195975
H        3.66259427      13.77439048       4.97918939       0.00000000       0.07704211      -0.25277087       0.15309188
H        5.88326652      13.72376711       6.15546376       0.00000000      -0.03021536      -0.01552488       0.01676440
H        5.06982008      13.50994783       7.72166337       0.00000000       0.06919757       0.01033487      -0.02774010
H        5.73413023      15.87846617       7.43823370       0.00000000      -0.01548573       0.00063837      -0.02634938
H        4.90934728      15.95670673       5.86595499       0.00000000       0.03145441       0.04999729       0.02359701
H        3.47188239      17.01581067       7.56126885       0.00000000      -0.03384756      -0.02063063      -0.01766743
H        3.59664405      15.61616428       8.62704680       0.00000000       0.00519736      -0.01998998      -0.00052260
H        2.17872864      15.72918512       5.89742598       0.00000000       0.02579158      -0.05482877       0.00960770
H        1.56339110      13.35956803       6.24203307       0.00000000       0.06326085      -0.04439606      -0.02708387
H        2.43434104      13.29519649       7.78257080       0.00000000       0.05196875      -0.02291259      -0.07434083
H        4.47824255      12.02855671       5.25308904       0.00000000      -0.34401064       0.51033784       0.20499216
