66
Lattice="10.2106 0.0 0.0 0.0 30.2527 0.0 5.10531 0.0 8.84266" Properties=species:S:1:pos:R:3:initial_magmoms:R:1:momenta:R:3:forces:R:3 energy=-318560.87416 stress="0.009544566727521181 1.2077401797523472e-05 1.949973398338581e-05 1.2077401797523472e-05 0.0006187195235098516 6.972891973933365e-06 1.949973398338581e-05 6.972891973933365e-06 0.009522051375635703" magmom=3.61235e-13 free_energy=-318560.87416 pbc="T T T"
Cu       0.76579550      12.00000573       0.44213300       0.00000000       0.00000000       0.00000000       0.00000000      -0.00014448       0.17364787      -0.00008341
Cu       3.31844550      12.00000573       0.44213300       0.00000000       0.00000000       0.00000000       0.00000000       0.00009337       0.17149584       0.00095788
Cu       5.87109550      12.00000573       0.44213300       0.00000000       0.00000000       0.00000000       0.00000000       0.00073918       0.17125764      -0.00043190
Cu       8.42374550      12.00000573       0.44213300       0.00000000       0.00000000       0.00000000       0.00000000      -0.00077078       0.17257536      -0.00027377
Cu       2.04212300      12.00000573       2.65279800       0.00000000       0.00000000       0.00000000       0.00000000       0.00087623       0.17149584      -0.00039808
Cu       4.59477300      12.00000573       2.65279800       0.00000000       0.00000000       0.00000000       0.00000000      -0.00005946       0.17359793      -0.00003433
Cu       7.14742300      12.00000573       2.65279800       0.00000000       0.00000000       0.00000000       0.00000000      -0.00033410       0.17272737      -0.00124037
Cu       9.70007300      12.00000573       2.65279800       0.00000000       0.00000000       0.00000000       0.00000000      -0.00013361       0.17207089       0.00005309
Cu       3.31845050      12.00000573       4.86346300       0.00000000       0.00000000       0.00000000       0.00000000      -0.00000444       0.17125764       0.00085610
Cu       5.87110050      12.00000573       4.86346300       0.00000000       0.00000000       0.00000000       0.00000000      -0.00124124       0.17272737       0.00033085
Cu       8.42375050      12.00000573       4.86346300       0.00000000       0.00000000       0.00000000       0.00000000       0.00107015       0.17118590       0.00061785
Cu      10.97640050      12.00000573       4.86346300       0.00000000       0.00000000       0.00000000       0.00000000      -0.00014417       0.17317849       0.00152606
Cu       4.59477800      12.00000573       7.07412800       0.00000000       0.00000000       0.00000000       0.00000000      -0.00062249       0.17257536      -0.00053063
Cu       7.14742800      12.00000573       7.07412800       0.00000000       0.00000000       0.00000000       0.00000000      -0.00002083       0.17207089      -0.00014226
Cu       9.70007800      12.00000573       7.07412800       0.00000000       0.00000000       0.00000000       0.00000000       0.00124952       0.17317849      -0.00088789
Cu      12.25272800      12.00000573       7.07412800       0.00000000       0.00000000       0.00000000       0.00000000      -0.00033658       0.17289112      -0.00019433
Cu       2.04211623      14.08423524       1.17901839       0.00000000       0.00000000       0.00000000       0.00000000      -0.00373748      -0.19432686      -0.00215784
Cu       4.59476623      14.08423524       1.17901839       0.00000000       0.00000000       0.00000000       0.00000000      -0.00464756      -0.20416364       0.00525324
Cu       7.14741623      14.08423524       1.17901839       0.00000000       0.00000000       0.00000000       0.00000000      -0.00051490      -0.19614056       0.00371599
Cu       9.70006623      14.08423524       1.17901839       0.00000000       0.00000000       0.00000000       0.00000000      -0.00100606      -0.20148437       0.00472304
Cu       3.31844373      14.08423524       3.38968339       0.00000000       0.00000000       0.00000000       0.00000000       0.00222566      -0.20416364      -0.00665153
Cu       5.87109373      14.08423524       3.38968339       0.00000000       0.00000000       0.00000000       0.00000000       0.00031472      -0.19303182       0.00018171
Cu       8.42374373      14.08423524       3.38968339       0.00000000       0.00000000       0.00000000       0.00000000      -0.00363633      -0.20256307       0.00128231
Cu      10.97639373      14.08423524       3.38968339       0.00000000       0.00000000       0.00000000       0.00000000      -0.00098264      -0.19835947      -0.00043943
Cu       4.59477123      14.08423524       5.60034839       0.00000000       0.00000000       0.00000000       0.00000000       0.00296070      -0.19614056      -0.00230391
Cu       7.14742123      14.08423524       5.60034839       0.00000000       0.00000000       0.00000000       0.00000000      -0.00070765      -0.20256307      -0.00379031
Cu       9.70007123      14.08423524       5.60034839       0.00000000       0.00000000       0.00000000       0.00000000       0.00281935      -0.21336734       0.00162775
Cu      12.25272123      14.08423524       5.60034839       0.00000000       0.00000000       0.00000000       0.00000000       0.00997034      -0.21074351       0.00054829
Cu       5.87109873      14.08423524       7.81101339       0.00000000       0.00000000       0.00000000       0.00000000       0.00358724      -0.20148437      -0.00323279
Cu       8.42374873      14.08423524       7.81101339       0.00000000       0.00000000       0.00000000       0.00000000      -0.00087188      -0.19835947      -0.00063127
Cu      10.97639873      14.08423524       7.81101339       0.00000000       0.00000000       0.00000000       0.00000000       0.00546001      -0.21074351       0.00836042
Cu      13.52904873      14.08423524       7.81101339       0.00000000       0.00000000       0.00000000       0.00000000      -0.00069289      -0.19457191      -0.00040004
Cu      10.97534548      16.10451055       1.91806138       0.00000000       0.00000000       0.00000000       0.00000000       0.00518831       0.01558391       0.00414805
Cu       3.31473051      16.10432903       1.91376385       0.00000000       0.00000000       0.00000000       0.00000000       0.00872977       0.01396790       0.00504014
Cu       5.86830457      16.10372398       1.91364889       0.00000000       0.00000000       0.00000000       0.00000000       0.01126283       0.01869453       0.02371629
Cu       8.42379312      16.10357272       1.91761040       0.00000000       0.00000000       0.00000000       0.00000000      -0.00318824       0.01566186      -0.00363076
Cu      12.25541516      16.10148528       4.12721429       0.00000000       0.00000000       0.00000000       0.00000000      -0.01025007       0.02451283      -0.01354850
Cu       4.59142048      16.10372398       4.12528659       0.00000000       0.00000000       0.00000000       0.00000000       0.02617033       0.01869453      -0.00210425
Cu       7.14830278      16.10432903       4.12708165       0.00000000       0.00000000       0.00000000       0.00000000      -0.02512179       0.01022597      -0.01450407
Cu       9.69788450      16.10139452       4.12866448       0.00000000       0.00000000       0.00000000       0.00000000       0.01660100       0.02182052      -0.01017916
Cu      13.53167119      16.10405676       6.33789697       0.00000000       0.00000000       0.00000000       0.00000000      -0.00015869       0.01499549       0.00582954
Cu       5.87259802      16.10357272       6.33642909       0.00000000       0.00000000       0.00000000       0.00000000      -0.00473845       0.01566186      -0.00094572
Cu       8.42446691      16.10139452       6.33429801       0.00000000       0.00000000       0.00000000       0.00000000      -0.00051492       0.02182052       0.01946646
Cu      10.98210479      16.09918607       6.34053208       0.00000000       0.00000000       0.00000000       0.00000000      -0.01398520       0.02749976      -0.00807436
Cu      14.80863174      16.10224160       8.54978226       0.00000000       0.00000000       0.00000000       0.00000000      -0.01137113       0.02503179      -0.00656513
Cu       7.14876725      16.10451055       8.54591802       0.00000000       0.00000000       0.00000000       0.00000000       0.00618647       0.01558391       0.00241918
Cu       9.70197884      16.10148528       8.54991490       0.00000000       0.00000000       0.00000000       0.00000000      -0.01685838       0.02451283      -0.00210258
Cu      12.25460842      16.10405676       8.54984416       0.00000000       0.00000000       0.00000000       0.00000000       0.00496918       0.01499549      -0.00305220
Cu       0.77092633      18.13767351       0.44509529       0.00000000       0.00000000       0.00000000       0.00000000      -0.01711873       0.03552438      -0.00988350
Cu       3.31840976      18.14478289       0.44336213       0.00000000       0.00000000       0.00000000       0.00000000       0.01416634       0.00743882      -0.02467543
Cu       5.87293851      18.14184838       0.44067396       0.00000000       0.00000000       0.00000000       0.00000000      -0.00761138       0.02145333      -0.00120918
Cu       8.42781953      18.13894412       0.44494497       0.00000000       0.00000000       0.00000000       0.00000000      -0.00385348       0.02811819      -0.00798760
Cu       2.04316959      18.14478289       2.65215249       0.00000000       0.00000000       0.00000000       0.00000000      -0.01428638       0.00743882       0.02460612
Cu       4.59102060      18.14060802       2.65063155       0.00000000       0.00000000       0.00000000       0.00000000       0.01534118       0.02086798       0.00885724
Cu       7.14491119      18.14021473       2.65110021       0.00000000       0.00000000       0.00000000       0.00000000       0.00192099       0.02267522       0.00706807
Cu       9.69788283      18.14266520       2.65675067       0.00000000       0.00000000       0.00000000       0.00000000       0.01600239       0.01398800      -0.00615847
Cu       3.31810845      18.14184838       4.86578862       0.00000000       0.00000000       0.00000000       0.00000000      -0.00485287       0.02145333      -0.00598706
Cu       5.86837427      18.14021473       4.86213660       0.00000000       0.00000000       0.00000000       0.00000000       0.00708163       0.02267522      -0.00187041
Cu       8.42237207      18.14033574       4.86266716       0.00000000       0.00000000       0.00000000       0.00000000       0.00168006       0.02305849       0.00096998
Cu      10.97707440      18.12705481       4.86512542       0.00000000       0.00000000       0.00000000       0.00000000       0.00951835       0.03295545      -0.01145619
Cu       4.59925025      18.13894412       7.07625024       0.00000000       0.00000000       0.00000000       0.00000000      -0.00884421       0.02811819       0.00065659
Cu       7.14975601      18.14266520       7.07025491       0.00000000       0.00000000       0.00000000       0.00000000       0.00266780       0.01398800       0.01693771
Cu       9.70185464      18.12705481       7.07388041       0.00000000       0.00000000       0.00000000       0.00000000      -0.00516218       0.03295545       0.01397123
Cu      12.25767504      18.14196939       7.07698418       0.00000000       0.00000000       0.00000000       0.00000000      -0.01005679       0.01270005      -0.00580629
N        9.78694307      21.54182832       5.65050395       0.00000000       0.00000000       0.00000000       0.00000000       0.04443408       0.00883712       0.02565403
N       10.74158374      21.55450420       6.20166695       0.00000000       0.00000000       0.00000000       0.00000000      -0.03728336       0.01016022      -0.02152556
66
Lattice="10.2106 0.0 0.0 0.0 30.2527 0.0 5.10531 0.0 8.84266" Properties=species:S:1:pos:R:3:initial_magmoms:R:1:momenta:R:3:forces:R:3 energy=-318560.8666 pbc="T T T"
Cu       0.76579550      12.00000573       0.44213300       0.00000000       0.00000000       0.00000000       0.00000000       0.00000000       0.00000000       0.00000000
Cu       3.31844550      12.00000573       0.44213300       0.00000000       0.00000000       0.00000000       0.00000000       0.00000000       0.00000000       0.00000000
Cu       5.87109550      12.00000573       0.44213300       0.00000000       0.00000000       0.00000000       0.00000000       0.00000000       0.00000000       0.00000000
Cu       8.42374550      12.00000573       0.44213300       0.00000000       0.00000000       0.00000000       0.00000000       0.00000000       0.00000000       0.00000000
Cu       2.04212300      12.00000573       2.65279800       0.00000000       0.00000000       0.00000000       0.00000000       0.00000000       0.00000000       0.00000000
Cu       4.59477300      12.00000573       2.65279800       0.00000000       0.00000000       0.00000000       0.00000000       0.00000000       0.00000000       0.00000000
Cu       7.14742300      12.00000573       2.65279800       0.00000000       0.00000000       0.00000000       0.00000000       0.00000000       0.00000000       0.00000000
Cu       9.70007300      12.00000573       2.65279800       0.00000000       0.00000000       0.00000000       0.00000000       0.00000000       0.00000000       0.00000000
Cu       3.31845050      12.00000573       4.86346300       0.00000000       0.00000000       0.00000000       0.00000000       0.00000000       0.00000000       0.00000000
Cu       5.87110050      12.00000573       4.86346300       0.00000000       0.00000000       0.00000000       0.00000000       0.00000000       0.00000000       0.00000000
Cu       8.42375050      12.00000573       4.86346300       0.00000000       0.00000000       0.00000000       0.00000000       0.00000000       0.00000000       0.00000000
Cu      10.97640050      12.00000573       4.86346300       0.00000000       0.00000000       0.00000000       0.00000000       0.00000000       0.00000000       0.00000000
Cu       4.59477800      12.00000573       7.07412800       0.00000000       0.00000000       0.00000000       0.00000000       0.00000000       0.00000000       0.00000000
Cu       7.14742800      12.00000573       7.07412800       0.00000000       0.00000000       0.00000000       0.00000000       0.00000000       0.00000000       0.00000000
Cu       9.70007800      12.00000573       7.07412800       0.00000000       0.00000000       0.00000000       0.00000000       0.00000000       0.00000000       0.00000000
Cu      12.25272800      12.00000573       7.07412800       0.00000000       0.00000000       0.00000000       0.00000000       0.00000000       0.00000000       0.00000000
Cu       2.04211623      14.08423524       1.17901839       0.00000000       0.00000000       0.00000000       0.00000000       0.00000000       0.00000000       0.00000000
Cu       4.59476623      14.08423524       1.17901839       0.00000000       0.00000000       0.00000000       0.00000000       0.00000000       0.00000000       0.00000000
Cu       7.14741623      14.08423524       1.17901839       0.00000000       0.00000000       0.00000000       0.00000000       0.00000000       0.00000000       0.00000000
Cu       9.70006623      14.08423524       1.17901839       0.00000000       0.00000000       0.00000000       0.00000000       0.00000000       0.00000000       0.00000000
Cu       3.31844373      14.08423524       3.38968339       0.00000000       0.00000000       0.00000000       0.00000000       0.00000000       0.00000000       0.00000000
Cu       5.87109373      14.08423524       3.38968339       0.00000000       0.00000000       0.00000000       0.00000000       0.00000000       0.00000000       0.00000000
Cu       8.42374373      14.08423524       3.38968339       0.00000000       0.00000000       0.00000000       0.00000000       0.00000000       0.00000000       0.00000000
Cu      10.97639373      14.08423524       3.38968339       0.00000000       0.00000000       0.00000000       0.00000000       0.00000000       0.00000000       0.00000000
Cu       4.59477123      14.08423524       5.60034839       0.00000000       0.00000000       0.00000000       0.00000000       0.00000000       0.00000000       0.00000000
Cu       7.14742123      14.08423524       5.60034839       0.00000000       0.00000000       0.00000000       0.00000000       0.00000000       0.00000000       0.00000000
Cu       9.70007123      14.08423524       5.60034839       0.00000000       0.00000000       0.00000000       0.00000000       0.00000000       0.00000000       0.00000000
Cu      12.25272123      14.08423524       5.60034839       0.00000000       0.00000000       0.00000000       0.00000000       0.00000000       0.00000000       0.00000000
Cu       5.87109873      14.08423524       7.81101339       0.00000000       0.00000000       0.00000000       0.00000000       0.00000000       0.00000000       0.00000000
Cu       8.42374873      14.08423524       7.81101339       0.00000000       0.00000000       0.00000000       0.00000000       0.00000000       0.00000000       0.00000000
Cu      10.97639873      14.08423524       7.81101339       0.00000000       0.00000000       0.00000000       0.00000000       0.00000000       0.00000000       0.00000000
Cu      13.52904873      14.08423524       7.81101339       0.00000000       0.00000000       0.00000000       0.00000000       0.00000000       0.00000000       0.00000000
Cu      10.97633297      16.10689472       1.91525027       0.00000000       0.00000000       0.00000000       0.00000000       0.00008369       0.00046152       0.00015558
Cu       3.31810287      16.10694885       1.91501848       0.00000000       0.00000000       0.00000000       0.00000000       0.00005205       0.00048025       0.00021102
Cu       5.87094952      16.10705990       1.91592380       0.00000000       0.00000000       0.00000000       0.00000000       0.00010015       0.00056613       0.00014210
Cu       8.42333732      16.10693150       1.91468838       0.00000000       0.00000000       0.00000000       0.00000000       0.00006335       0.00052995       0.00019909
Cu      12.25552077      16.10293079       4.12402857       0.00000000       0.00000000       0.00000000       0.00000000      -0.00032953       0.00103995       0.00041369
Cu       4.59540992      16.10680553       4.12563383       0.00000000       0.00000000       0.00000000       0.00000000      -0.00009031       0.00046251       0.00025758
Cu       7.14554897      16.10601790       4.12507714       0.00000000       0.00000000       0.00000000       0.00000000       0.00027236       0.00063774       0.00032681
Cu       9.69779668      16.10349840       4.12459963       0.00000000       0.00000000       0.00000000       0.00000000       0.00048507       0.00090554       0.00047794
Cu      13.52962792      16.10607202       6.33627836       0.00000000       0.00000000       0.00000000       0.00000000       0.00000851       0.00061585       0.00023369
Cu       5.87045724      16.10710638       6.33682536       0.00000000       0.00000000       0.00000000       0.00000000       0.00013688       0.00047159       0.00015902
Cu       8.42167814      16.10417329       6.33591796       0.00000000       0.00000000       0.00000000       0.00000000       0.00035451       0.00091498       0.00029908
Cu      10.97700787      16.10202772       6.33761521       0.00000000       0.00000000       0.00000000       0.00000000      -0.00003988       0.00110615       0.00005296
Cu      14.80521723      16.10773597       8.54741915       0.00000000       0.00000000       0.00000000       0.00000000       0.00010516       0.00020574       0.00016217
Cu       7.14715823      16.10725359       8.54756561       0.00000000       0.00000000       0.00000000       0.00000000       0.00007372       0.00022216       0.00014687
Cu       9.69956466      16.10332294       8.55061622       0.00000000       0.00000000       0.00000000       0.00000000       0.00004577       0.00088877      -0.00025721
Cu      12.25258562      16.10587872       8.54844444       0.00000000       0.00000000       0.00000000       0.00000000       0.00013243       0.00073661       0.00002087
Cu       0.76529758      18.14603312       0.44125297       0.00000000       0.00000000       0.00000000       0.00000000       0.00013366       0.00069971       0.00037485
Cu       3.31826009      18.14688065       0.44121997       0.00000000       0.00000000       0.00000000       0.00000000       0.00019436       0.00054746       0.00025759
Cu       5.87045884      18.14569033       0.44039211       0.00000000       0.00000000       0.00000000       0.00000000       0.00015751       0.00073659       0.00033701
Cu       8.42283806      18.14676501       0.44088661       0.00000000       0.00000000       0.00000000       0.00000000       0.00017267       0.00042259       0.00032949
Cu       2.04182629      18.14656680       2.65173603       0.00000000       0.00000000       0.00000000       0.00000000       0.00007014       0.00057660       0.00046017
Cu       4.59442332      18.14581041       2.65166086       0.00000000       0.00000000       0.00000000       0.00000000       0.00013302       0.00061042       0.00028410
Cu       7.14719379      18.14636868       2.65163210       0.00000000       0.00000000       0.00000000       0.00000000       0.00014520       0.00052973       0.00029602
Cu       9.69954431      18.14597637       2.65170671       0.00000000       0.00000000       0.00000000       0.00000000       0.00019619       0.00080152       0.00043568
Cu       3.31781936      18.14486849       4.86218949       0.00000000       0.00000000       0.00000000       0.00000000      -0.00004191       0.00109096       0.00042532
Cu       5.87070190      18.14656853       4.86252831       0.00000000       0.00000000       0.00000000       0.00000000       0.00015310       0.00049227       0.00031441
Cu       8.42295677      18.14140246       4.86214591       0.00000000       0.00000000       0.00000000       0.00000000       0.00029444       0.00152850       0.00040231
Cu      10.97787871      18.12538682       4.85900159       0.00000000       0.00000000       0.00000000       0.00000000      -0.00006241       0.00342319       0.00101899
Cu       4.59409463      18.14650487       7.07291792       0.00000000       0.00000000       0.00000000       0.00000000       0.00012213       0.00059743       0.00033079
Cu       7.14703212      18.14631223       7.07309428       0.00000000       0.00000000       0.00000000       0.00000000       0.00022722       0.00063821       0.00025080
Cu       9.69769031      18.12910723       7.07643655       0.00000000       0.00000000       0.00000000       0.00000000       0.00056780       0.00291168      -0.00028754
Cu      12.25314753      18.14090771       7.07385929       0.00000000       0.00000000       0.00000000       0.00000000      -0.00011372       0.00173465       0.00011158
N        9.94785852      21.35112060       5.71594165       0.00000000       0.00000000       0.00000000       0.00000000       0.01063476       0.04405045       0.00354837
N       11.00859748      21.33617472       6.01579084       0.00000000       0.00000000       0.00000000       0.00000000       0.00628264       0.04492032       0.00280494
66
Lattice="10.2106 0.0 0.0 0.0 30.2527 0.0 5.10531 0.0 8.84266" Properties=species:S:1:pos:R:3:initial_magmoms:R:1:momenta:R:3:forces:R:3 energy=-318560.82817 pbc="T T T"
Cu       0.76579550      12.00000573       0.44213300       0.00000000       0.00000000       0.00000000       0.00000000       0.00000000       0.00000000       0.00000000
Cu       3.31844550      12.00000573       0.44213300       0.00000000       0.00000000       0.00000000       0.00000000       0.00000000       0.00000000       0.00000000
Cu       5.87109550      12.00000573       0.44213300       0.00000000       0.00000000       0.00000000       0.00000000       0.00000000       0.00000000       0.00000000
Cu       8.42374550      12.00000573       0.44213300       0.00000000       0.00000000       0.00000000       0.00000000       0.00000000       0.00000000       0.00000000
Cu       2.04212300      12.00000573       2.65279800       0.00000000       0.00000000       0.00000000       0.00000000       0.00000000       0.00000000       0.00000000
Cu       4.59477300      12.00000573       2.65279800       0.00000000       0.00000000       0.00000000       0.00000000       0.00000000       0.00000000       0.00000000
Cu       7.14742300      12.00000573       2.65279800       0.00000000       0.00000000       0.00000000       0.00000000       0.00000000       0.00000000       0.00000000
Cu       9.70007300      12.00000573       2.65279800       0.00000000       0.00000000       0.00000000       0.00000000       0.00000000       0.00000000       0.00000000
Cu       3.31845050      12.00000573       4.86346300       0.00000000       0.00000000       0.00000000       0.00000000       0.00000000       0.00000000       0.00000000
Cu       5.87110050      12.00000573       4.86346300       0.00000000       0.00000000       0.00000000       0.00000000       0.00000000       0.00000000       0.00000000
Cu       8.42375050      12.00000573       4.86346300       0.00000000       0.00000000       0.00000000       0.00000000       0.00000000       0.00000000       0.00000000
Cu      10.97640050      12.00000573       4.86346300       0.00000000       0.00000000       0.00000000       0.00000000       0.00000000       0.00000000       0.00000000
Cu       4.59477800      12.00000573       7.07412800       0.00000000       0.00000000       0.00000000       0.00000000       0.00000000       0.00000000       0.00000000
Cu       7.14742800      12.00000573       7.07412800       0.00000000       0.00000000       0.00000000       0.00000000       0.00000000       0.00000000       0.00000000
Cu       9.70007800      12.00000573       7.07412800       0.00000000       0.00000000       0.00000000       0.00000000       0.00000000       0.00000000       0.00000000
Cu      12.25272800      12.00000573       7.07412800       0.00000000       0.00000000       0.00000000       0.00000000       0.00000000       0.00000000       0.00000000
Cu       2.04211623      14.08423524       1.17901839       0.00000000       0.00000000       0.00000000       0.00000000       0.00000000       0.00000000       0.00000000
Cu       4.59476623      14.08423524       1.17901839       0.00000000       0.00000000       0.00000000       0.00000000       0.00000000       0.00000000       0.00000000
Cu       7.14741623      14.08423524       1.17901839       0.00000000       0.00000000       0.00000000       0.00000000       0.00000000       0.00000000       0.00000000
Cu       9.70006623      14.08423524       1.17901839       0.00000000       0.00000000       0.00000000       0.00000000       0.00000000       0.00000000       0.00000000
Cu       3.31844373      14.08423524       3.38968339       0.00000000       0.00000000       0.00000000       0.00000000       0.00000000       0.00000000       0.00000000
Cu       5.87109373      14.08423524       3.38968339       0.00000000       0.00000000       0.00000000       0.00000000       0.00000000       0.00000000       0.00000000
Cu       8.42374373      14.08423524       3.38968339       0.00000000       0.00000000       0.00000000       0.00000000       0.00000000       0.00000000       0.00000000
Cu      10.97639373      14.08423524       3.38968339       0.00000000       0.00000000       0.00000000       0.00000000       0.00000000       0.00000000       0.00000000
Cu       4.59477123      14.08423524       5.60034839       0.00000000       0.00000000       0.00000000       0.00000000       0.00000000       0.00000000       0.00000000
Cu       7.14742123      14.08423524       5.60034839       0.00000000       0.00000000       0.00000000       0.00000000       0.00000000       0.00000000       0.00000000
Cu       9.70007123      14.08423524       5.60034839       0.00000000       0.00000000       0.00000000       0.00000000       0.00000000       0.00000000       0.00000000
Cu      12.25272123      14.08423524       5.60034839       0.00000000       0.00000000       0.00000000       0.00000000       0.00000000       0.00000000       0.00000000
Cu       5.87109873      14.08423524       7.81101339       0.00000000       0.00000000       0.00000000       0.00000000       0.00000000       0.00000000       0.00000000
Cu       8.42374873      14.08423524       7.81101339       0.00000000       0.00000000       0.00000000       0.00000000       0.00000000       0.00000000       0.00000000
Cu      10.97639873      14.08423524       7.81101339       0.00000000       0.00000000       0.00000000       0.00000000       0.00000000       0.00000000       0.00000000
Cu      13.52904873      14.08423524       7.81101339       0.00000000       0.00000000       0.00000000       0.00000000       0.00000000       0.00000000       0.00000000
Cu      10.97551093      16.10718810       1.91422768       0.00000000       0.00000000       0.00000000       0.00000000       0.00045673       0.00299112       0.00015732
Cu       3.31761746      16.10709048       1.91343529       0.00000000       0.00000000       0.00000000       0.00000000       0.00011164       0.00364742       0.00063846
Cu       5.87020218      16.10761981       1.91536281       0.00000000       0.00000000       0.00000000       0.00000000       0.00021090       0.00333906       0.00038561
Cu       8.42213001      16.10706578       1.91285848       0.00000000       0.00000000       0.00000000       0.00000000       0.00067273       0.00357007       0.00078385